48
# CELL(abcABC):    5.61218     5.61703    13.80783    89.92375    89.73954    90.31190  Step:         391  Bead:       0 positions{angstrom}  cell{angstrom}
       C  1.85847e+00  6.22059e-01  8.16515e-01
       C  3.75975e+00  5.01513e+00  7.72670e+00
       C  2.21910e+00  4.68628e+00  1.11745e+01
       C  3.42860e+00  9.59875e-01  4.27567e+00
       C  9.71520e-01  3.43658e+00  9.53780e+00
       C  4.66259e+00  2.20544e+00  2.62594e+00
       C  6.64777e-01  1.88138e+00  1.29873e+01
       C  5.00131e+00  3.76907e+00  6.08274e+00
       H  2.72382e+00  5.45045e-01  1.46307e+00
       H  2.89700e+00  5.09713e+00  8.37592e+00
       H  2.30032e+00  5.55119e+00  1.18212e+01
       H  3.35406e+00  9.83398e-02  4.92762e+00
       H  1.06577e-01  3.35366e+00  8.89123e+00
       H  5.52352e+00  2.28807e+00  1.97421e+00
       H  5.76973e-01  2.74569e+00  1.23408e+01
       H  5.08040e+00  2.90605e+00  5.43342e+00
       C  8.57003e-01  5.24771e+00  8.06271e-01
       C  4.76883e+00  3.81870e-01  7.71642e+00
       C  3.20560e+00  3.71042e+00  1.11638e+01
       C  2.43854e+00  1.93211e+00  4.26505e+00
       C  1.94959e+00  2.45224e+00  9.54796e+00
       C  3.68124e+00  3.18643e+00  2.63642e+00
       C  5.29782e+00  8.98295e-01  1.29974e+01
       C  3.76006e-01  4.74442e+00  6.09297e+00
       H  9.72392e-01  4.36786e+00  1.42800e+00
       H  4.66165e+00  1.26151e+00  8.33997e+00
       H  4.08665e+00  3.82134e+00  1.17847e+01
       H  1.56135e+00  1.82107e+00  4.89114e+00
       H  1.84057e+00  1.57138e+00  8.92648e+00
       H  3.78432e+00  4.06491e+00  2.01068e+00
       H  4.41605e+00  1.00298e+00  1.23764e+01
       H  1.25463e+00  4.63463e+00  5.46861e+00
       C  5.35050e+00  5.37944e+00 -2.16726e-03
       C  2.72130e-01  2.43249e-01  6.90489e+00
       C  3.06768e+00  2.59221e+00  1.03558e+01
       C  2.56788e+00  3.04657e+00  3.45059e+00
       H  4.58928e+00  4.60768e+00 -2.77276e-03
       H  1.04059e+00  1.00782e+00  6.90559e+00
       H  3.83484e+00  1.82632e+00  1.03559e+01
       H  1.79745e+00  3.80921e+00  3.45016e+00
       C  1.71533e+00  1.73342e+00 -2.10003e-03
       C  3.89165e+00  3.90469e+00  6.90492e+00
       C  1.10650e+00  4.54910e+00  1.03564e+01
       C  4.53617e+00  1.09653e+00  3.45074e+00
       H  2.47578e+00  2.50376e+00 -2.18544e-03
       H  3.12475e+00  3.14078e+00  6.90504e+00
       H  3.40301e-01  5.31376e+00  1.03566e+01
       H  5.30527e+00  3.34793e-01  3.45075e+00
