<simulation verbosity='high'>
   <prng>
      <seed>4441</seed>
      <state shape='(624)'>
       [ 1412957045, 3283556635, 786311955, 1151320112, 1937455290, 
         2090273439, 2883092673, 2844959590, 1570649021, 2694619908, 
         1286870230, 3190340699, 3607689987, 1308872960, 4068001821, 
         912051659, 1572941970, 818991146, 2856433737, 1316010424, 
         3256295526, 3100299345, 2985055655, 3519814982, 2342865968, 
         3871964627, 3857738598, 2747587805, 3221543075, 1164772658, 
         3064550837, 328901964, 4124631584, 209018021, 479638566, 
         2534315431, 1492415990, 3990941987, 2090836693, 3798420260, 
         962345966, 2496144150, 2598113028, 1182660162, 1018935607, 
         2823916871, 2516844243, 1514744542, 2612962080, 3611781631, 
         1631850423, 3869277405, 31736239, 2313447561, 1438456728, 
         2856132244, 1424681238, 2081583989, 1143153491, 2423481415, 
         3807149757, 2348835058, 417358839, 3255011062, 4153238861, 
         1470735156, 1615127370, 1900437505, 85104082, 2360284667, 
         3676525879, 296510219, 3178301277, 2548509039, 2244801432, 
         2027305888, 3276203337, 4146561836, 3724277322, 2542764504, 
         2519566331, 3135972193, 2509754550, 1896542054, 452631139, 
         490668683, 660950365, 1306560953, 713307674, 429442657, 
         1358490929, 273775872, 1180781133, 3629796418, 3103805667, 
         1645049424, 856307697, 2665221043, 834299718, 1116303031, 
         909747287, 3699215870, 1685326971, 229464550, 3417463764, 
         1274020603, 873012537, 75197415, 769716304, 4084185897, 
         3641616202, 852793447, 3143309532, 2378882204, 2990624548, 
         228784896, 3996282133, 341926249, 2495582183, 1444475747, 
         1730967679, 1574566549, 84712661, 2775520713, 1884572889, 
         26961001, 602352758, 2784757990, 171034936, 2193723730, 
         840848354, 1562748353, 2408155653, 2942916588, 2928724471, 
         318518412, 278641460, 2760123795, 2597271677, 660172634, 
         4290704147, 4258817474, 3762747400, 3310922619, 3052415961, 
         457647020, 1084122773, 1504193078, 2384507327, 2410794439, 
         2065653150, 3949538897, 941881680, 2213287711, 4199564102, 
         3695077055, 1119452792, 3923051671, 4214230368, 3411470684, 
         1978174905, 1412917147, 1933835753, 2826410049, 380222444, 
         1740820177, 2313588702, 683571262, 1492973664, 3347951437, 
         1243738568, 3854439911, 2701643767, 1309343977, 2648490669, 
         2806112573, 2484234931, 82025863, 3178156358, 3664780093, 
         3332732940, 2815944681, 1522858329, 212459954, 2036525793, 
         4146153247, 3737303591, 845703881, 2958885184, 4224886173, 
         2282422500, 2546161580, 2350281406, 2781811305, 304996473, 
         3853513710, 1898543559, 1561048965, 1047098643, 1747359062, 
         392126866, 1177502859, 3504809655, 2235582371, 843035177, 
         3346851534, 4136623160, 3375889289, 3254352106, 3695161144, 
         2710600935, 1010294287, 1954345240, 3600857119, 1258496703, 
         1113497790, 1587518049, 2597501715, 287022753, 2097357235, 
         2701971475, 1581981044, 2002099552, 2163497941, 3483380592, 
         1096795594, 932031148, 3118301431, 3200885575, 4154829245, 
         3654927105, 1853922548, 4183578410, 2321754627, 2567147165, 
         3743214988, 1000920802, 4076171358, 2309715835, 3202311785, 
         271654813, 3851951576, 2411330315, 1894860016, 427997666, 
         3487066671, 2481534489, 1282862106, 1990653591, 1485305531, 
         234202850, 3036279615, 3435009833, 1648433760, 3273432429, 
         1925142651, 2543357475, 1290985804, 1232814419, 3323949133, 
         245445553, 1334979267, 3656465031, 1221196747, 2456743413, 
         796066737, 3865645090, 2402117631, 3205336201, 2376213679, 
         3425908768, 2101017533, 125836263, 106103254, 2150714705, 
         1519435698, 3340692047, 957224242, 1462422165, 3620820494, 
         4070365656, 1509793973, 2589833310, 437650751, 3996182061, 
         809924689, 2813459960, 1742523041, 2105059164, 3446784248, 
         299312324, 4134433652, 219346627, 977688274, 3989714439, 
         1026621875, 682955970, 15827043, 3406924911, 16405902, 
         1637655635, 4257860827, 3421242386, 740143132, 163980092, 
         1134248310, 277145683, 4242869965, 2427818678, 2232185000, 
         2642754045, 2216355356, 430573188, 3294054468, 1816391767, 
         713305047, 2874989669, 3189800425, 1129539889, 692479188, 
         3245045361, 2641809697, 1326617172, 3841463662, 2886830864, 
         1665350848, 1645692266, 3179317032, 4061825229, 3651881714, 
         1192643861, 1169822132, 1536181725, 2762038932, 2286825646, 
         1404586176, 1638850293, 1020845045, 423851934, 503684567, 
         772869895, 2170307435, 2719025734, 3210576618, 2950413085, 
         498856594, 2543643447, 519075030, 3450985643, 4182723063, 
         4007576943, 1289073127, 3437719896, 886321513, 4040230109, 
         2215931301, 4235424709, 336308641, 3800837604, 2965324879, 
         1135062234, 3155110233, 2071452639, 2242829670, 3401386839, 
         4162628185, 3506491879, 2041945776, 3981767369, 1576516980, 
         305988731, 4084565658, 1373668799, 720609862, 1295939729, 
         170313790, 3284899762, 552881142, 2376061628, 1018244341, 
         3973110162, 3435991119, 697408922, 59365007, 3670942, 
         2767505823, 3603437783, 4195255238, 2829601001, 1286847005, 
         420188258, 81798841, 453424810, 1286901624, 358569820, 
         3518727444, 3198102897, 2976186010, 2647201968, 780267436, 
         2612576906, 3280852481, 947034513, 2004002359, 3894516373, 
         4181210028, 1392752489, 3937048792, 3002878059, 1619888665, 
         1021427247, 2175390324, 1708562133, 2588292058, 2907648751, 
         1478104333, 2253922058, 4224889535, 113086081, 3719428504, 
         766779765, 3795752179, 495719019, 1110809378, 1250912406, 
         1970972208, 300412755, 2401925304, 3977240275, 3407727869, 
         2025528981, 512805218, 2907609373, 687519164, 1701065380, 
         581908321, 1072275577, 1459914464, 862141527, 4114772081, 
         596769712, 3054425391, 542920572, 739540853, 3804061347, 
         2812645544, 3626026563, 4178187995, 2799581494, 1435523322, 
         116235121, 1639422813, 494428033, 2714629853, 3450853367, 
         916472939, 49051162, 2236100300, 949303316, 2047674142, 
         2593357942, 3003886059, 2672926219, 3935718613, 733195848, 
         1714644517, 858462444, 671667156, 3422093110, 1615415304, 
         938051112, 3631084855, 1311954367, 750766711, 3756911014, 
         4146612992, 4001228261, 1460044989, 3006549795, 2609448209, 
         3035950196, 1419339496, 3297315000, 806060052, 2144530927, 
         2819633848, 2307441120, 1271743884, 983811714, 3888456909, 
         2861390647, 4212910064, 301373152, 4242352513, 2977552854, 
         2339224624, 952876134, 3070573625, 806034811, 1158316917, 
         3015514722, 4194290028, 1926299011, 339065705, 806599812, 
         3735757876, 2086782593, 3618105741, 3700005475, 2301346360, 
         2749596519, 3420090102, 1900243983, 790993365, 4116747427, 
         2917717955, 3676677259, 2045677458, 4274779024, 1408879745, 
         3034220770, 3204007315, 2752392769, 3103631914, 1134398537, 
         2093116926, 3850438237, 435604542, 1458251379, 3659732038, 
         2656993009, 3388165262, 531054641, 546691932, 905210340, 
         1379113140, 4204279311, 2122427533, 2566549274, 1380512844, 
         4141263231, 4055327573, 3364362738, 3938436781, 196007103, 
         2119031010, 3597594420, 586091135, 2394603009, 2252769107, 
         2176608879, 4015721290, 1966488999, 2768932880, 2111718025, 
         625532822, 288090022, 1408519569, 2836070673, 3617416737, 
         2385951469, 2289680760, 1072208229, 382375924, 619907203, 
         3822803631, 1124981823, 3578408884, 1154372466, 3287006203, 
         3706208653, 218452769, 726579731, 1538161875, 3147099791, 
         1994423702, 1200775559, 3596260341, 1425181027, 1510498106, 
         3419865743, 1314981277, 103011341, 3912932592, 3347018163, 
         2839887732, 3355580640, 527701848, 4188187908, 20977446, 
         3136341026, 2923441375, 929216795, 2021893643, 1669250115, 
         1603859759, 1562234567, 3313150232, 4134432670, 1330742946, 
         2903762232, 2459329811, 3288355788, 2092982003, 3207817788, 
         1081713810, 684403658, 2328054397, 142135450, 2496676716, 
         1157704426, 3680317727, 1985663232, 3607455084, 2498538064, 
         2155775165, 3990549817, 464421772, 1320060516, 3445831507, 
         3129650532, 1631805820, 1394352365, 1300995092 ]
      </state>
      <set_pos>412</set_pos>
   </prng>
   <output prefix='simulation'>
      <properties shape='(6)' stride='10'>
       [ step, time{picosecond}, potential{electronvolt}, conserved, temperature{kelvin}, 
         ensemble_temperature{kelvin} ]
      </properties>
      <trajectory filename='pos' stride='10'>positions</trajectory>
      <trajectory filename='frc' stride='10'>forces</trajectory>
      <checkpoint stride='1000'>81</checkpoint>
   </output>
   <step>80000</step>
   <total_steps>80000</total_steps>
   <total_time>  2.50000000e+05</total_time>
   <ffsocket mode='unix' name='driver-dftb'>
      <address>dftb-nvt-sb</address>
   </ffsocket>
   <ffsocket mode='unix' name='driver-gap'>
      <address>gapd-nvt-sb</address>
   </ffsocket>
   <system>
      <forces>
         <force forcefield='driver-dftb'>
         </force>
         <force forcefield='driver-gap'>
         </force>
      </forces>
      <ensemble>
         <temperature>  9.50044560e-04</temperature>
         <eens>  3.64313425e+01</eens>
         <hamiltonian_weights shape='(2)'> [   1.00000000e+00,   1.00000000e+00 ] </hamiltonian_weights>
         <time>  1.65365492e+06</time>
      </ensemble>
      <motion mode='dynamics'>
         <dynamics mode='nvt'>
            <thermostat mode='langevin'>
               <ethermo> -1.12939366e+02</ethermo>
               <tau>  4.13413730e+03</tau>
            </thermostat>
            <timestep>  2.06706865e+01</timestep>
            <nmts shape='(1)'> [ 1 ] </nmts>
         </dynamics>
      </motion>
      <beads natoms='28' nbeads='32'>
         <q shape='(32, 84)'>
          [   2.12480667e-01,   1.52472646e+01,   8.13676379e+00,   1.01926385e+01,   9.91374150e-01, 
              2.63516746e-01,   8.86268907e+00,   7.29517684e+00,   5.50454596e+00,   4.36782937e-01, 
              9.37559055e+00,   5.12544350e+00,   2.70357345e+00,   1.58124313e+01,   6.60445371e+00, 
              7.89772392e+00,   5.48741260e-01,   1.89212645e+00,   7.12037773e+00,   7.92082547e+00, 
              7.87483751e+00,   2.01952571e+00,   8.84639153e+00,   2.75392310e+00,   3.73925466e+00, 
              1.62257001e+00,   6.78809892e+00,   6.48306200e+00,   1.51526410e+01,   1.44185387e+00, 
              6.77443331e+00,   1.03332990e+01,   8.44896091e+00,   2.34133077e+00,   6.30541444e+00, 
              2.30632653e+00,   3.48137435e+00,   1.42325639e+01,   4.94952524e+00,   7.35598883e+00, 
              2.03148031e+00,   3.76637810e+00,   5.99838458e+00,   6.18125030e+00,   8.97336384e+00, 
              2.92279988e+00,   1.03736066e+01,   1.33536986e+00,   9.11409791e+00,   1.46607757e+01, 
              6.97058684e+00,   1.42305743e+00,   1.73223833e+00,   1.38410193e+00,  -6.27494956e-01, 
              5.62059281e+00,   5.87021355e+00,   9.88289263e+00,   1.12250651e+01,   4.97412665e+00, 
              1.52677557e+00,   1.37530611e+01,   1.99691759e-01,   8.86669694e+00,   2.58514638e+00, 
              8.46017534e+00,   7.44843886e+00,   6.71246826e+00,   3.93929153e+00,   1.54881328e+00, 
              9.49642306e+00,   6.78470811e+00,   4.75342084e+00,   1.46989911e+01,   3.25183921e+00, 
              5.34973202e+00,   1.70414565e+00,   5.40850988e+00,   3.29185746e+00,   6.33525776e+00, 
              1.07121557e+01,   6.20325001e+00,   1.07879577e+01,   1.76557602e-01,   1.99025984e-01, 
              1.52538743e+01,   8.19432694e+00,   1.01622027e+01,   9.97800471e-01,   2.49834213e-01, 
              8.87079847e+00,   7.33771001e+00,   5.51793726e+00,   4.75427149e-01,   9.41795824e+00, 
              5.03889029e+00,   2.65067688e+00,   1.58705478e+01,   6.58670806e+00,   7.92128923e+00, 
              5.57787292e-01,   1.84384414e+00,   7.15423104e+00,   7.91007329e+00,   7.84712272e+00, 
              2.05892988e+00,   8.86387905e+00,   2.75423919e+00,   3.67483925e+00,   1.58218359e+00, 
              6.73674174e+00,   6.54235279e+00,   1.50600638e+01,   1.44120655e+00,   6.73420553e+00, 
              1.03835708e+01,   8.42931301e+00,   2.31916598e+00,   6.28414092e+00,   2.24138859e+00, 
              3.48724101e+00,   1.42215320e+01,   4.92357349e+00,   7.41443542e+00,   2.05109463e+00, 
              3.78312397e+00,   6.00612146e+00,   6.17834126e+00,   8.93930599e+00,   2.91580306e+00, 
              1.04111369e+01,   1.33021949e+00,   9.09317799e+00,   1.45913540e+01,   7.08785849e+00, 
              1.35312868e+00,   1.58148318e+00,   1.46617332e+00,  -4.44769584e-01,   5.61518370e+00, 
              5.87387228e+00,   9.96123917e+00,   1.12600876e+01,   4.96028198e+00,   1.46387696e+00, 
              1.38173523e+01,   2.45946687e-01,   8.62636113e+00,   2.52376841e+00,   8.40522308e+00, 
              7.41879271e+00,   6.89129984e+00,   4.06519666e+00,   1.31374376e+00,   9.31837031e+00, 
              6.80897508e+00,   4.93215211e+00,   1.47391541e+01,   3.11487552e+00,   5.30756878e+00, 
              1.65015277e+00,   5.29920472e+00,   3.20164557e+00,   6.37102642e+00,   1.04817588e+01, 
              6.21239899e+00,   1.08308542e+01,   3.41934549e-01,   1.91390729e-01,   1.52275213e+01, 
              8.19661298e+00,   1.01980294e+01,   1.02073086e+00,   2.48875375e-01,   8.82150901e+00, 
              7.29763474e+00,   5.51485158e+00,   5.18224806e-01,   9.46332578e+00,   5.06345616e+00, 
              2.62908531e+00,   1.58331817e+01,   6.63737353e+00,   7.87006694e+00,   5.84009396e-01, 
              1.92451704e+00,   7.14386549e+00,   7.95301984e+00,   7.78674639e+00,   2.02748353e+00, 
              8.85103636e+00,   2.72643292e+00,   3.69639152e+00,   1.61079452e+00,   6.76095582e+00, 
              6.52275311e+00,   1.50565389e+01,   1.45319910e+00,   6.72288941e+00,   1.03709218e+01, 
              8.34587173e+00,   2.29706450e+00,   6.28963510e+00,   2.20914498e+00,   3.54024406e+00, 
              1.42027989e+01,   5.00500533e+00,   7.40372101e+00,   2.04686624e+00,   3.79628530e+00, 
              6.01749878e+00,   6.16517546e+00,   8.91751434e+00,   2.92118499e+00,   1.04194537e+01, 
              1.35662208e+00,   9.09446142e+00,   1.45252732e+01,   6.90680855e+00,   1.21716843e+00, 
              1.51505141e+00,   1.71800870e+00,  -5.35402716e-01,   5.67691702e+00,   6.01215317e+00, 
              9.90206193e+00,   1.12431475e+01,   5.14512395e+00,   1.60899084e+00,   1.38015057e+01, 
              2.68471892e-01,   8.89685225e+00,   2.58792384e+00,   8.28567817e+00,   7.58793139e+00, 
              6.89524019e+00,   3.83737322e+00,   1.47258852e+00,   9.22921556e+00,   6.96084581e+00, 
              4.87796859e+00,   1.47387050e+01,   3.00025696e+00,   5.10961220e+00,   1.77789605e+00, 
              5.47424260e+00,   3.27625591e+00,   6.36148947e+00,   1.06856232e+01,   6.15083571e+00, 
              1.08135757e+01,   4.67768011e-01,   2.85872011e-01,   1.53202282e+01,   8.15180954e+00, 
              1.01705355e+01,   1.02053316e+00,   2.09343187e-01,   8.83031532e+00,   7.33074569e+00, 
              5.48386072e+00,   4.91285338e-01,   9.46043649e+00,   5.06081439e+00,   2.59534596e+00, 
              1.58628643e+01,   6.57588308e+00,   7.92906403e+00,   5.68302198e-01,   1.89593934e+00, 
              7.15148831e+00,   7.93695879e+00,   7.73805166e+00,   2.00534647e+00,   8.81983333e+00, 
              2.75683258e+00,   3.68624982e+00,   1.59700974e+00,   6.76593592e+00,   6.54657881e+00, 
              1.50394852e+01,   1.50666186e+00,   6.68737202e+00,   1.03478065e+01,   8.32715276e+00, 
              2.28246078e+00,   6.31485760e+00,   2.25712083e+00,   3.56327241e+00,   1.42019133e+01, 
              5.05815725e+00,   7.37086843e+00,   2.02728749e+00,   3.74757926e+00,   6.05393765e+00, 
              6.12966868e+00,   8.88940661e+00,   2.86363319e+00,   1.04831999e+01,   1.35358434e+00, 
              9.08127810e+00,   1.46872966e+01,   6.93562028e+00,   1.24354321e+00,   1.69912579e+00, 
              1.80630034e+00,  -3.84631772e-01,   5.64905957e+00,   5.83591976e+00,   1.00348680e+01, 
              1.13717336e+01,   5.07145492e+00,   1.47955704e+00,   1.38850479e+01,   1.28031529e-01, 
              8.89990368e+00,   2.61850869e+00,   8.25149589e+00,   7.56197158e+00,   6.98633254e+00, 
              3.83929194e+00,   1.65172215e+00,   9.30005970e+00,   6.85034577e+00,   4.83064361e+00, 
              1.46292211e+01,   2.81016987e+00,   4.90629616e+00,   1.92954525e+00,   5.31285329e+00, 
              3.32008071e+00,   6.20060681e+00,   1.07787264e+01,   6.34962357e+00,   1.07756150e+01, 
              5.34152135e-01,   3.24709669e-01,   1.53109083e+01,   8.14122966e+00,   1.01582224e+01, 
              9.76906003e-01,   1.94688979e-01,   8.85005605e+00,   7.31706644e+00,   5.48778011e+00, 
              4.87754252e-01,   9.36448833e+00,   5.02400339e+00,   2.65256928e+00,   1.58894961e+01, 
              6.55260092e+00,   7.95439413e+00,   5.79391657e-01,   1.95469469e+00,   7.19080120e+00, 
              7.86213623e+00,   7.73225685e+00,   2.01567864e+00,   8.82063033e+00,   2.79667246e+00, 
              3.64997784e+00,   1.59853627e+00,   6.74341299e+00,   6.55188990e+00,   1.50542676e+01, 
              1.52100151e+00,   6.66678433e+00,   1.02613858e+01,   8.32150893e+00,   2.29083760e+00, 
              6.36260831e+00,   2.22207064e+00,   3.52583511e+00,   1.42129861e+01,   5.03982753e+00, 
              7.34907349e+00,   2.03435848e+00,   3.68842956e+00,   6.03987175e+00,   6.12372811e+00, 
              8.84341325e+00,   2.88742049e+00,   1.04966729e+01,   1.36646527e+00,   9.20784162e+00, 
              1.42686642e+01,   7.06211763e+00,   1.17535732e+00,   1.68046163e+00,   1.57287659e+00, 
             -3.60523115e-01,   5.68739941e+00,   5.98503709e+00,   9.99286942e+00,   1.14316477e+01, 
              5.04892651e+00,   1.55607326e+00,   1.37594005e+01,   3.37745935e-02,   8.91989294e+00, 
              2.55886813e+00,   8.23139822e+00,   7.48850216e+00,   7.00514925e+00,   3.78625289e+00, 
              1.60963707e+00,   9.40397853e+00,   6.93511082e+00,   5.00336856e+00,   1.45545861e+01, 
              2.98429415e+00,   4.84421233e+00,   1.81637375e+00,   5.28147073e+00,   3.47198553e+00, 
              6.30010996e+00,   1.07006406e+01,   6.11484934e+00,   1.06428969e+01,   3.05043500e-01, 
              2.73783369e-01,   1.52831493e+01,   8.18216755e+00,   1.01438682e+01,   1.00281493e+00, 
              2.09189337e-01,   8.81489508e+00,   7.31187546e+00,   5.47946196e+00,   4.30518376e-01, 
              9.37244095e+00,   5.10735691e+00,   2.66565362e+00,   1.59214954e+01,   6.53232400e+00, 
              7.88011131e+00,   5.52602333e-01,   1.98294395e+00,   7.19844732e+00,   7.82046394e+00, 
              7.75322730e+00,   2.01034101e+00,   8.80161637e+00,   2.81324954e+00,   3.62451296e+00, 
              1.56900203e+00,   6.81233050e+00,   6.50301344e+00,   1.50705416e+01,   1.53856658e+00, 
              6.69227873e+00,   1.02644916e+01,   8.31345271e+00,   2.36440080e+00,   6.40123434e+00, 
              2.23204358e+00,   3.47167550e+00,   1.41885999e+01,   5.10163830e+00,   7.33134077e+00, 
              2.03789663e+00,   3.74586956e+00,   6.02994302e+00,   6.13240793e+00,   8.81193355e+00, 
              2.97070837e+00,   1.05467333e+01,   1.36707670e+00,   9.30655988e+00,   1.41768438e+01, 
              7.14211299e+00,   1.40081172e+00,   1.54851528e+00,   1.65310591e+00,  -5.08522405e-01, 
              5.50966451e+00,   5.89965535e+00,   1.01171934e+01,   1.13938749e+01,   5.17653857e+00, 
              1.55172198e+00,   1.36465351e+01,   2.92714251e-01,   9.00034860e+00,   2.51327525e+00, 
              8.29664531e+00,   7.39237696e+00,   7.06696653e+00,   3.73066040e+00,   1.82255748e+00, 
              9.28286254e+00,   6.94383093e+00,   5.06281009e+00,   1.46340007e+01,   2.99390752e+00, 
              4.85861640e+00,   2.07139327e+00,   5.41375365e+00,   3.43785877e+00,   6.22720531e+00, 
              1.07277798e+01,   5.92091067e+00,   1.07194313e+01,   3.68113296e-01,   3.65881151e-01, 
              1.52197603e+01,   8.08634541e+00,   1.01562544e+01,   1.02020037e+00,   2.03258596e-01, 
              8.84451792e+00,   7.31362765e+00,   5.43061877e+00,   4.56971101e-01,   9.35589318e+00, 
              5.13615339e+00,   2.67887733e+00,   1.59111088e+01,   6.54831220e+00,   7.87069781e+00, 
              5.61841514e-01,   1.97690969e+00,   7.15853629e+00,   7.87334371e+00,   7.76495017e+00, 
              2.00491963e+00,   8.83995858e+00,   2.73778340e+00,   3.61755507e+00,   1.58371427e+00, 
              6.82521319e+00,   6.50842779e+00,   1.50519851e+01,   1.50911880e+00,   6.64683126e+00, 
              1.02375211e+01,   8.24911174e+00,   2.38250805e+00,   6.33342297e+00,   2.26247556e+00, 
              3.47166100e+00,   1.41389793e+01,   5.09206776e+00,   7.38307026e+00,   2.04033644e+00, 
              3.75746075e+00,   6.02388711e+00,   6.16593405e+00,   8.81523761e+00,   2.96390460e+00, 
              1.05187631e+01,   1.33248434e+00,   9.26374266e+00,   1.42735787e+01,   7.10332549e+00, 
              1.29478496e+00,   1.65762786e+00,   1.74001872e+00,  -6.05992951e-01,   5.36336872e+00, 
              5.70731662e+00,   1.00336979e+01,   1.15159031e+01,   5.36282235e+00,   1.39068625e+00, 
              1.37873085e+01,   3.03870801e-01,   9.15224191e+00,   2.46108732e+00,   8.24871725e+00, 
              7.56264442e+00,   7.08617284e+00,   3.61088013e+00,   1.79186666e+00,   9.36178011e+00, 
              6.69452523e+00,   4.93186954e+00,   1.44918322e+01,   3.05565808e+00,   4.93836349e+00, 
              2.02527563e+00,   5.48560727e+00,   3.64115520e+00,   6.32918718e+00,   1.08769947e+01, 
              5.86152750e+00,   1.06548714e+01,   3.31807980e-01,   4.03071934e-01,   1.51498890e+01, 
              8.11080670e+00,   1.01545178e+01,   1.03924438e+00,   1.42215679e-01,   8.87497511e+00, 
              7.28393198e+00,   5.45607815e+00,   4.60379334e-01,   9.30996172e+00,   5.12035331e+00, 
              2.69564907e+00,   1.59479743e+01,   6.51857215e+00,   7.90394722e+00,   5.32027269e-01, 
              1.90576961e+00,   7.12601869e+00,   7.82792724e+00,   7.67879042e+00,   2.00947245e+00, 
              8.89097987e+00,   2.71507918e+00,   3.61501910e+00,   1.58490686e+00,   6.82438034e+00, 
              6.45809312e+00,   1.50648259e+01,   1.45066298e+00,   6.69971535e+00,   1.02656650e+01, 
              8.22383928e+00,   2.37499247e+00,   6.33272967e+00,   2.33061766e+00,   3.46902888e+00, 
              1.40843928e+01,   5.12656040e+00,   7.31375220e+00,   2.05467697e+00,   3.75223826e+00, 
              5.99155678e+00,   6.12733707e+00,   8.79602965e+00,   2.96076352e+00,   1.05547070e+01, 
              1.36868619e+00,   9.19562390e+00,   1.42846585e+01,   6.92568211e+00,   1.25588687e+00, 
              1.76447338e+00,   1.63728852e+00,  -4.45926176e-01,   5.41977598e+00,   5.79409927e+00, 
              1.02122608e+01,   1.14768982e+01,   5.19412226e+00,   1.28015223e+00,   1.39051783e+01, 
              2.89510985e-01,   9.15145504e+00,   2.62450221e+00,   8.25548368e+00,   7.70074818e+00, 
              6.84285677e+00,   3.55178971e+00,   1.73555675e+00,   9.18969821e+00,   6.64983522e+00, 
              4.94450705e+00,   1.44052774e+01,   2.74695832e+00,   5.01014756e+00,   2.04170928e+00, 
              5.39590445e+00,   3.50703865e+00,   6.55469606e+00,   1.08982442e+01,   5.89206378e+00, 
              1.06622157e+01,   2.93208157e-01,   3.42343396e-01,   1.51778264e+01,   8.16943862e+00, 
              1.01521183e+01,   1.10091621e+00,   1.09021388e-01,   8.90430971e+00,   7.25550521e+00, 
              5.41005502e+00,   4.86067992e-01,   9.34874463e+00,   5.10247103e+00,   2.63138693e+00, 
              1.59255335e+01,   6.49416239e+00,   7.82083964e+00,   5.25812402e-01,   1.87744332e+00, 
              7.07298407e+00,   7.79874884e+00,   7.70455922e+00,   1.99162527e+00,   8.83237661e+00, 
              2.68000343e+00,   3.60937025e+00,   1.57036716e+00,   6.84655183e+00,   6.43142511e+00, 
              1.50712695e+01,   1.44463712e+00,   6.68219205e+00,   1.02779658e+01,   8.22576873e+00, 
              2.39804706e+00,   6.34750193e+00,   2.35940194e+00,   3.43644604e+00,   1.40514184e+01, 
              5.09228390e+00,   7.30978216e+00,   2.08355020e+00,   3.70958098e+00,   5.97320775e+00, 
              6.12066653e+00,   8.82938813e+00,   2.98800377e+00,   1.05531396e+01,   1.36896059e+00, 
              9.26477103e+00,   1.41429135e+01,   6.94076917e+00,   1.42560061e+00,   1.92917657e+00, 
              1.29066435e+00,  -5.90399370e-01,   5.27367175e+00,   5.77205203e+00,   1.00604230e+01, 
              1.14288527e+01,   4.98446217e+00,   1.40762728e+00,   1.39312152e+01,   1.38558607e-01, 
              9.26256777e+00,   2.67301924e+00,   8.17277921e+00,   7.66541665e+00,   6.78211575e+00, 
              3.72467812e+00,   1.90734588e+00,   9.12265017e+00,   6.62646863e+00,   4.96508328e+00, 
              1.42808155e+01,   2.71660420e+00,   5.04480894e+00,   2.07593029e+00,   5.31594167e+00, 
              3.49619978e+00,   6.44400949e+00,   1.08676966e+01,   5.80099741e+00,   1.06674919e+01, 
              1.57369696e-01,   3.10641397e-01,   1.50752809e+01,   8.17324304e+00,   1.01699820e+01, 
              1.08314125e+00,   1.48776325e-01,   8.88485862e+00,   7.22943259e+00,   5.43435814e+00, 
              4.52171967e-01,   9.35002840e+00,   5.07668348e+00,   2.60305529e+00,   1.59890551e+01, 
              6.46424383e+00,   7.73692659e+00,   5.65686382e-01,   1.88488842e+00,   7.00802684e+00, 
              7.92639346e+00,   7.77268681e+00,   2.05210326e+00,   8.84223014e+00,   2.67440938e+00, 
              3.59214518e+00,   1.57471323e+00,   6.82554897e+00,   6.42086928e+00,   1.50770658e+01, 
              1.38424623e+00,   6.70064492e+00,   1.03409436e+01,   8.22800700e+00,   2.41269863e+00, 
              6.37068835e+00,   2.33328843e+00,   3.40547362e+00,   1.40993921e+01,   5.10802497e+00, 
              7.30837944e+00,   2.08520653e+00,   3.71014447e+00,   5.95297419e+00,   6.09763939e+00, 
              8.77999905e+00,   3.00152214e+00,   1.05548034e+01,   1.38341444e+00,   9.32197193e+00, 
              1.42891030e+01,   6.74440629e+00,   1.44333079e+00,   1.59321151e+00,   1.30243091e+00, 
             -7.20231405e-01,   5.27428809e+00,   5.87631813e+00,   9.88078812e+00,   1.14126750e+01, 
              4.87595336e+00,   1.42487822e+00,   1.39369142e+01,   2.36071999e-01,   9.25101188e+00, 
              2.58829257e+00,   8.20622183e+00,   7.69086142e+00,   6.78458130e+00,   3.71317615e+00, 
              1.85127127e+00,   9.09732943e+00,   6.63895863e+00,   4.79049893e+00,   1.42935533e+01, 
              2.80919076e+00,   4.97955818e+00,   2.11662261e+00,   5.38769706e+00,   3.48774272e+00, 
              6.66719218e+00,   1.11115040e+01,   5.94289364e+00,   1.06187656e+01,   4.47307759e-02, 
              3.04740703e-01,   1.52040939e+01,   8.14617459e+00,   1.01660073e+01,   1.03213649e+00, 
              1.38470177e-01,   8.90265172e+00,   7.22504557e+00,   5.53236659e+00,   4.50535188e-01, 
              9.43112068e+00,   5.02918545e+00,   2.56551375e+00,   1.60585393e+01,   6.45875130e+00, 
              7.71735630e+00,   5.88345973e-01,   1.84498972e+00,   6.97945320e+00,   8.00037928e+00, 
              7.75690543e+00,   1.97143505e+00,   8.88306797e+00,   2.72928282e+00,   3.59854565e+00, 
              1.58161597e+00,   6.92453774e+00,   6.39186499e+00,   1.51034482e+01,   1.43337000e+00, 
              6.71218354e+00,   1.03827151e+01,   8.25391524e+00,   2.38943831e+00,   6.44558493e+00, 
              2.25194655e+00,   3.44574965e+00,   1.41175681e+01,   5.11105999e+00,   7.29864768e+00, 
              2.08937603e+00,   3.68115837e+00,   5.94444781e+00,   6.10393341e+00,   8.78540375e+00, 
              2.98960856e+00,   1.05664009e+01,   1.39494391e+00,   9.12441738e+00,   1.43435869e+01, 
              6.91255868e+00,   1.35226770e+00,   1.78038147e+00,   1.33768500e+00,  -7.43136623e-01, 
              5.33379220e+00,   5.91254816e+00,   9.85876754e+00,   1.14091417e+01,   4.87619487e+00, 
              1.33405467e+00,   1.40007997e+01,   2.17484178e-01,   9.09305251e+00,   2.44934215e+00, 
              8.41976325e+00,   7.75779277e+00,   6.80232569e+00,   3.79716110e+00,   1.92341493e+00, 
              9.28623256e+00,   6.54143647e+00,   4.80743724e+00,   1.44850253e+01,   2.81916279e+00, 
              5.02870516e+00,   2.00117846e+00,   5.44289747e+00,   3.58665602e+00,   6.49504349e+00, 
              1.12471382e+01,   5.98029044e+00,   1.06805045e+01,   5.36167012e-02,   3.28914374e-01, 
              1.52370576e+01,   8.11868144e+00,   1.02202177e+01,   1.04165026e+00,   9.48998459e-02, 
              8.83306201e+00,   7.28909975e+00,   5.53720509e+00,   4.37639079e-01,   9.40081457e+00, 
              5.01711303e+00,   2.52572623e+00,   1.60268497e+01,   6.47034016e+00,   7.70966716e+00, 
              5.39322069e-01,   1.79505829e+00,   6.94175448e+00,   8.00093018e+00,   7.67966273e+00, 
              1.93149544e+00,   8.88496549e+00,   2.72912211e+00,   3.61405857e+00,   1.62297976e+00, 
              6.93449693e+00,   6.40363312e+00,   1.51036439e+01,   1.40097815e+00,   6.73989547e+00, 