<simulation verbosity='high'>
   <prng>
      <seed>4441</seed>
      <state shape='(624)'>
       [ 1412957045, 3283556635, 786311955, 1151320112, 1937455290, 
         2090273439, 2883092673, 2844959590, 1570649021, 2694619908, 
         1286870230, 3190340699, 3607689987, 1308872960, 4068001821, 
         912051659, 1572941970, 818991146, 2856433737, 1316010424, 
         3256295526, 3100299345, 2985055655, 3519814982, 2342865968, 
         3871964627, 3857738598, 2747587805, 3221543075, 1164772658, 
         3064550837, 328901964, 4124631584, 209018021, 479638566, 
         2534315431, 1492415990, 3990941987, 2090836693, 3798420260, 
         962345966, 2496144150, 2598113028, 1182660162, 1018935607, 
         2823916871, 2516844243, 1514744542, 2612962080, 3611781631, 
         1631850423, 3869277405, 31736239, 2313447561, 1438456728, 
         2856132244, 1424681238, 2081583989, 1143153491, 2423481415, 
         3807149757, 2348835058, 417358839, 3255011062, 4153238861, 
         1470735156, 1615127370, 1900437505, 85104082, 2360284667, 
         3676525879, 296510219, 3178301277, 2548509039, 2244801432, 
         2027305888, 3276203337, 4146561836, 3724277322, 2542764504, 
         2519566331, 3135972193, 2509754550, 1896542054, 452631139, 
         490668683, 660950365, 1306560953, 713307674, 429442657, 
         1358490929, 273775872, 1180781133, 3629796418, 3103805667, 
         1645049424, 856307697, 2665221043, 834299718, 1116303031, 
         909747287, 3699215870, 1685326971, 229464550, 3417463764, 
         1274020603, 873012537, 75197415, 769716304, 4084185897, 
         3641616202, 852793447, 3143309532, 2378882204, 2990624548, 
         228784896, 3996282133, 341926249, 2495582183, 1444475747, 
         1730967679, 1574566549, 84712661, 2775520713, 1884572889, 
         26961001, 602352758, 2784757990, 171034936, 2193723730, 
         840848354, 1562748353, 2408155653, 2942916588, 2928724471, 
         318518412, 278641460, 2760123795, 2597271677, 660172634, 
         4290704147, 4258817474, 3762747400, 3310922619, 3052415961, 
         457647020, 1084122773, 1504193078, 2384507327, 2410794439, 
         2065653150, 3949538897, 941881680, 2213287711, 4199564102, 
         3695077055, 1119452792, 3923051671, 4214230368, 3411470684, 
         1978174905, 1412917147, 1933835753, 2826410049, 380222444, 
         1740820177, 2313588702, 683571262, 1492973664, 3347951437, 
         1243738568, 3854439911, 2701643767, 1309343977, 2648490669, 
         2806112573, 2484234931, 82025863, 3178156358, 3664780093, 
         3332732940, 2815944681, 1522858329, 212459954, 2036525793, 
         4146153247, 3737303591, 845703881, 2958885184, 4224886173, 
         2282422500, 2546161580, 2350281406, 2781811305, 304996473, 
         3853513710, 1898543559, 1561048965, 1047098643, 1747359062, 
         392126866, 1177502859, 3504809655, 2235582371, 843035177, 
         3346851534, 4136623160, 3375889289, 3254352106, 3695161144, 
         2710600935, 1010294287, 1954345240, 3600857119, 1258496703, 
         1113497790, 1587518049, 2597501715, 287022753, 2097357235, 
         2701971475, 1581981044, 2002099552, 2163497941, 3483380592, 
         1096795594, 932031148, 3118301431, 3200885575, 4154829245, 
         3654927105, 1853922548, 4183578410, 2321754627, 2567147165, 
         3743214988, 1000920802, 4076171358, 2309715835, 3202311785, 
         271654813, 3851951576, 2411330315, 1894860016, 427997666, 
         3487066671, 2481534489, 1282862106, 1990653591, 1485305531, 
         234202850, 3036279615, 3435009833, 1648433760, 3273432429, 
         1925142651, 2543357475, 1290985804, 1232814419, 3323949133, 
         245445553, 1334979267, 3656465031, 1221196747, 2456743413, 
         796066737, 3865645090, 2402117631, 3205336201, 2376213679, 
         3425908768, 2101017533, 125836263, 106103254, 2150714705, 
         1519435698, 3340692047, 957224242, 1462422165, 3620820494, 
         4070365656, 1509793973, 2589833310, 437650751, 3996182061, 
         809924689, 2813459960, 1742523041, 2105059164, 3446784248, 
         299312324, 4134433652, 219346627, 977688274, 3989714439, 
         1026621875, 682955970, 15827043, 3406924911, 16405902, 
         1637655635, 4257860827, 3421242386, 740143132, 163980092, 
         1134248310, 277145683, 4242869965, 2427818678, 2232185000, 
         2642754045, 2216355356, 430573188, 3294054468, 1816391767, 
         713305047, 2874989669, 3189800425, 1129539889, 692479188, 
         3245045361, 2641809697, 1326617172, 3841463662, 2886830864, 
         1665350848, 1645692266, 3179317032, 4061825229, 3651881714, 
         1192643861, 1169822132, 1536181725, 2762038932, 2286825646, 
         1404586176, 1638850293, 1020845045, 423851934, 503684567, 
         772869895, 2170307435, 2719025734, 3210576618, 2950413085, 
         498856594, 2543643447, 519075030, 3450985643, 4182723063, 
         4007576943, 1289073127, 3437719896, 886321513, 4040230109, 
         2215931301, 4235424709, 336308641, 3800837604, 2965324879, 
         1135062234, 3155110233, 2071452639, 2242829670, 3401386839, 
         4162628185, 3506491879, 2041945776, 3981767369, 1576516980, 
         305988731, 4084565658, 1373668799, 720609862, 1295939729, 
         170313790, 3284899762, 552881142, 2376061628, 1018244341, 
         3973110162, 3435991119, 697408922, 59365007, 3670942, 
         2767505823, 3603437783, 4195255238, 2829601001, 1286847005, 
         420188258, 81798841, 453424810, 1286901624, 358569820, 
         3518727444, 3198102897, 2976186010, 2647201968, 780267436, 
         2612576906, 3280852481, 947034513, 2004002359, 3894516373, 
         4181210028, 1392752489, 3937048792, 3002878059, 1619888665, 
         1021427247, 2175390324, 1708562133, 2588292058, 2907648751, 
         1478104333, 2253922058, 4224889535, 113086081, 3719428504, 
         766779765, 3795752179, 495719019, 1110809378, 1250912406, 
         1970972208, 300412755, 2401925304, 3977240275, 3407727869, 
         2025528981, 512805218, 2907609373, 687519164, 1701065380, 
         581908321, 1072275577, 1459914464, 862141527, 4114772081, 
         596769712, 3054425391, 542920572, 739540853, 3804061347, 
         2812645544, 3626026563, 4178187995, 2799581494, 1435523322, 
         116235121, 1639422813, 494428033, 2714629853, 3450853367, 
         916472939, 49051162, 2236100300, 949303316, 2047674142, 
         2593357942, 3003886059, 2672926219, 3935718613, 733195848, 
         1714644517, 858462444, 671667156, 3422093110, 1615415304, 
         938051112, 3631084855, 1311954367, 750766711, 3756911014, 
         4146612992, 4001228261, 1460044989, 3006549795, 2609448209, 
         3035950196, 1419339496, 3297315000, 806060052, 2144530927, 
         2819633848, 2307441120, 1271743884, 983811714, 3888456909, 
         2861390647, 4212910064, 301373152, 4242352513, 2977552854, 
         2339224624, 952876134, 3070573625, 806034811, 1158316917, 
         3015514722, 4194290028, 1926299011, 339065705, 806599812, 
         3735757876, 2086782593, 3618105741, 3700005475, 2301346360, 
         2749596519, 3420090102, 1900243983, 790993365, 4116747427, 
         2917717955, 3676677259, 2045677458, 4274779024, 1408879745, 
         3034220770, 3204007315, 2752392769, 3103631914, 1134398537, 
         2093116926, 3850438237, 435604542, 1458251379, 3659732038, 
         2656993009, 3388165262, 531054641, 546691932, 905210340, 
         1379113140, 4204279311, 2122427533, 2566549274, 1380512844, 
         4141263231, 4055327573, 3364362738, 3938436781, 196007103, 
         2119031010, 3597594420, 586091135, 2394603009, 2252769107, 
         2176608879, 4015721290, 1966488999, 2768932880, 2111718025, 
         625532822, 288090022, 1408519569, 2836070673, 3617416737, 
         2385951469, 2289680760, 1072208229, 382375924, 619907203, 
         3822803631, 1124981823, 3578408884, 1154372466, 3287006203, 
         3706208653, 218452769, 726579731, 1538161875, 3147099791, 
         1994423702, 1200775559, 3596260341, 1425181027, 1510498106, 
         3419865743, 1314981277, 103011341, 3912932592, 3347018163, 
         2839887732, 3355580640, 527701848, 4188187908, 20977446, 
         3136341026, 2923441375, 929216795, 2021893643, 1669250115, 
         1603859759, 1562234567, 3313150232, 4134432670, 1330742946, 
         2903762232, 2459329811, 3288355788, 2092982003, 3207817788, 
         1081713810, 684403658, 2328054397, 142135450, 2496676716, 
         1157704426, 3680317727, 1985663232, 3607455084, 2498538064, 
         2155775165, 3990549817, 464421772, 1320060516, 3445831507, 
         3129650532, 1631805820, 1394352365, 1300995092 ]
      </state>
      <set_pos>412</set_pos>
   </prng>
   <output prefix='simulation'>
      <properties shape='(6)' stride='10'>
       [ step, time{picosecond}, potential{electronvolt}, conserved, temperature{kelvin}, 
         ensemble_temperature{kelvin} ]
      </properties>
      <trajectory filename='pos' stride='10'>positions</trajectory>
      <trajectory filename='frc' stride='10'>forces</trajectory>
      <checkpoint stride='1000'>81</checkpoint>
   </output>
   <step>80000</step>
   <total_steps>80000</total_steps>
   <total_time>  2.50000000e+05</total_time>
   <ffsocket mode='unix' name='driver-dftb'>
      <address>dftb-nvt-sb</address>
   </ffsocket>
   <ffsocket mode='unix' name='driver-gap'>
      <address>gapd-nvt-sb</address>
   </ffsocket>
   <system>
      <forces>
         <force forcefield='driver-dftb'>
         </force>
         <force forcefield='driver-gap'>
         </force>
      </forces>
      <ensemble>
         <temperature>  9.50044560e-04</temperature>
         <eens>  3.64366407e+01</eens>
         <hamiltonian_weights shape='(2)'> [   1.00000000e+00,   1.00000000e+00 ] </hamiltonian_weights>
         <time>  1.65365492e+06</time>
      </ensemble>
      <motion mode='dynamics'>
         <dynamics mode='nvt'>
            <thermostat mode='langevin'>
               <ethermo> -1.07842851e+02</ethermo>
               <tau>  4.13413730e+03</tau>
            </thermostat>
            <timestep>  2.06706865e+01</timestep>
            <nmts shape='(1)'> [ 1 ] </nmts>
         </dynamics>
      </motion>
      <beads natoms='28' nbeads='32'>
         <q shape='(32, 84)'>
          [   2.36806641e+00,   9.98039138e+00,   4.28644698e+00,   7.73723071e+00,   2.07299754e+00, 
              4.62006594e-01,   8.10834494e+00,   6.29848834e+00,   4.90767266e+00,   1.83664674e+00, 
              1.48882749e+01,   9.49681771e+00,   1.47849488e+00,   6.44175312e+00,   2.15909443e+00, 
              8.47361447e+00,   1.50152935e+01,   2.68346484e+00,   8.71086727e+00,   9.84054907e+00, 
              7.06185146e+00,   8.38286125e-01,   1.69870501e+00,   6.99612045e+00,   4.96682509e+00, 
              9.09359620e+00,   7.84663240e-01,   5.32437330e+00,   1.47377397e+00,   4.16321792e+00, 
              5.62718393e+00,   6.86970782e+00,   8.81429555e+00,   4.34654432e+00,   1.59108610e+01, 
              5.76186962e+00,   6.33355093e+00,   1.01272975e+01,   2.09051225e+00,   3.59280709e+00, 
              2.22084805e+00,   2.96110966e+00,   4.07401414e+00,   5.95732197e+00,   7.67329720e+00, 
              5.77825137e+00,   1.48527457e+01,   6.74314891e+00,   3.81252023e+00,   1.07260902e+01, 
              9.09174556e+00,   6.13520235e+00,   2.95937758e+00,   5.53094522e+00,   6.76641437e+00, 
              5.22075033e+00,   3.42942933e-01,   3.58950419e+00,   1.42665659e+01,   4.43479007e+00, 
              2.80163218e+00,   8.47138714e+00,   2.44103174e+00,   7.32534426e+00,   6.66689536e-01, 
              2.38706864e+00,   7.64862076e+00,   7.71110389e+00,   6.70578240e+00,   2.33385618e+00, 
              1.64045800e+01,   7.68114601e+00,   9.80827821e+00,   9.95729642e+00,   5.80970093e+00, 
             -3.98110477e-02,   1.89564773e+00,  -7.50936821e-01,  -3.67324774e-01,   6.51741977e+00, 
              3.47691288e+00,   9.50667663e+00,   1.50564521e+01,   1.08617015e+01,   2.37999384e+00, 
              9.99467631e+00,   4.28834804e+00,   7.70833684e+00,   2.12197969e+00,   4.67828456e-01, 
              8.10968487e+00,   6.30988872e+00,   4.92508462e+00,   1.86896948e+00,   1.49183146e+01, 
              9.40853367e+00,   1.47031041e+00,   6.44467330e+00,   2.15246965e+00,   8.49741178e+00, 
              1.50349439e+01,   2.65666895e+00,   8.72256384e+00,   9.87176223e+00,   7.05622258e+00, 
              8.61089771e-01,   1.68229282e+00,   6.99185020e+00,   4.91061494e+00,   9.05033768e+00, 
              7.08430955e-01,   5.38711827e+00,   1.41419951e+00,   4.12897953e+00,   5.59263215e+00, 
              6.90408599e+00,   8.78498525e+00,   4.38755067e+00,   1.59391092e+01,   5.72169279e+00, 
              6.21875339e+00,   1.00239990e+01,   2.14093832e+00,   3.69885686e+00,   2.36442459e+00, 
              2.98510854e+00,   3.86967227e+00,   6.03949873e+00,   7.78710418e+00,   5.76197105e+00, 
              1.48578699e+01,   6.62201831e+00,   3.50592673e+00,   1.07079438e+01,   9.18184575e+00, 
              5.96700219e+00,   2.84106946e+00,   5.71467104e+00,   6.85431947e+00,   5.52189324e+00, 
              3.34375971e-01,   3.43747040e+00,   1.44424771e+01,   4.42250197e+00,   2.76731784e+00, 
              8.42812433e+00,   2.48344216e+00,   7.30050431e+00,   6.02687367e-01,   2.38693889e+00, 
              7.62008679e+00,   7.76819467e+00,   6.69742715e+00,   2.33792326e+00,   1.63657442e+01, 
              7.68575706e+00,   1.00710866e+01,   1.00951708e+01,   5.71245276e+00,  -9.07174840e-02, 
              1.64937722e+00,  -9.32126496e-01,  -2.80837146e-01,   6.48746769e+00,   3.33210125e+00, 
              9.48690928e+00,   1.50375010e+01,   1.10261787e+01,   2.35132164e+00,   9.98849760e+00, 
              4.33000028e+00,   7.70760380e+00,   2.16231882e+00,   4.68014040e-01,   8.09689891e+00, 
              6.28589935e+00,   4.91536361e+00,   1.85204521e+00,   1.49031388e+01,   9.46488911e+00, 
              1.48583172e+00,   6.39708013e+00,   2.18904912e+00,   8.54661971e+00,   1.50222986e+01, 
              2.68067723e+00,   8.65040441e+00,   9.90710479e+00,   7.03282970e+00,   8.56010286e-01, 
              1.64367531e+00,   7.00018382e+00,   4.92737848e+00,   9.05323748e+00,   7.31583595e-01, 
              5.32891592e+00,   1.42344809e+00,   4.15805234e+00,   5.57911031e+00,   6.90729445e+00, 
              8.72164614e+00,   4.38579844e+00,   1.59221451e+01,   5.70543253e+00,   6.35030888e+00, 
              9.84413096e+00,   2.18673818e+00,   3.91695721e+00,   2.43391308e+00,   3.01492538e+00, 
              3.87719924e+00,   6.10165874e+00,   7.52986979e+00,   5.62614309e+00,   1.47379566e+01, 
              6.58429836e+00,   3.49439013e+00,   1.06344674e+01,   9.31664077e+00,   5.98886125e+00, 
              2.83138872e+00,   5.80250290e+00,   6.70552981e+00,   5.60618342e+00,   4.40723790e-01, 
              3.30613336e+00,   1.44154533e+01,   4.54374565e+00,   2.81716150e+00,   8.46747296e+00, 
              2.50131032e+00,   7.29691557e+00,   6.16350915e-01,   2.40640827e+00,   7.63809750e+00, 
              7.75389115e+00,   6.65002600e+00,   2.38869140e+00,   1.63362197e+01,   7.64843593e+00, 
              1.00161141e+01,   1.01715083e+01,   5.66626730e+00,  -1.30922236e-01,   1.70699552e+00, 
             -8.88800005e-01,  -1.73882894e-01,   6.46463580e+00,   3.54988898e+00,   9.55082495e+00, 
              1.49479889e+01,   1.10228251e+01,   2.39216954e+00,   1.00521645e+01,   4.27163133e+00, 
              7.71509955e+00,   2.19830615e+00,   4.60813649e-01,   8.08750483e+00,   6.32775731e+00, 
              4.86924737e+00,   1.86056793e+00,   1.49074932e+01,   9.47853322e+00,   1.50998572e+00, 
              6.36849820e+00,   2.15569421e+00,   8.53943790e+00,   1.49855349e+01,   2.66295157e+00, 
              8.65371442e+00,   9.89901800e+00,   7.01538194e+00,   8.38995813e-01,   1.65685615e+00, 
              6.99813933e+00,   4.94524290e+00,   9.06868996e+00,   7.15372560e-01,   5.26132411e+00, 
              1.40557752e+00,   4.22521393e+00,   5.54913297e+00,   6.91699580e+00,   8.67857996e+00, 
              4.33667229e+00,   1.59149709e+01,   5.75345205e+00,   6.30097957e+00,   9.87249124e+00, 
              2.16170993e+00,   3.74050977e+00,   2.45940117e+00,   3.07708899e+00,   3.96584240e+00, 
              6.08192038e+00,   7.47140619e+00,   5.78229624e+00,   1.46807710e+01,   6.79677541e+00, 
              3.48345336e+00,   1.05862937e+01,   9.38788174e+00,   6.12806588e+00,   2.85688409e+00, 
              5.81258403e+00,   6.85597827e+00,   5.67637769e+00,   4.87356787e-01,   3.44844621e+00, 
              1.45527765e+01,   4.43768216e+00,   2.79951706e+00,   8.46957055e+00,   2.56942817e+00, 
              7.26154774e+00,   5.42192597e-01,   2.40514701e+00,   7.63655979e+00,   7.71455533e+00, 
              6.63759966e+00,   2.38247853e+00,   1.63593471e+01,   7.61377729e+00,   9.89758206e+00, 
              9.98577563e+00,   5.47293522e+00,  -2.75285891e-01,   1.73150102e+00,  -1.01944557e+00, 
              7.18060805e-03,   6.49040136e+00,   3.60123506e+00,   9.79608077e+00,   1.49473382e+01, 
              1.11428551e+01,   2.41466628e+00,   1.00056083e+01,   4.28660998e+00,   7.69486797e+00, 
              2.13584239e+00,   5.02025481e-01,   8.09678138e+00,   6.26306854e+00,   4.89167736e+00, 
              1.86063903e+00,   1.49059369e+01,   9.44557123e+00,   1.54047032e+00,   6.36076099e+00, 
              2.14929620e+00,   8.56700897e+00,   1.50236699e+01,   2.67837352e+00,   8.65497531e+00, 
              9.86327925e+00,   7.00516982e+00,   9.04476339e-01,   1.67438774e+00,   6.98913724e+00, 
              4.94048468e+00,   9.06440562e+00,   6.92824062e-01,   5.23597971e+00,   1.46551135e+00, 
              4.21377281e+00,   5.49888187e+00,   6.85609636e+00,   8.65639523e+00,   4.32679492e+00, 
              1.58928691e+01,   5.79747451e+00,   6.32404185e+00,   1.01176571e+01,   2.05727655e+00, 
              3.54973195e+00,   2.39024652e+00,   3.07534777e+00,   3.86748645e+00,   5.97616328e+00, 
              7.40178550e+00,   5.67808418e+00,   1.46520978e+01,   6.68093042e+00,   3.45160287e+00, 
              1.05316119e+01,   9.21527973e+00,   6.21349177e+00,   2.81326803e+00,   5.66069961e+00, 
              6.70297183e+00,   5.70644458e+00,   4.11704459e-01,   3.61634223e+00,   1.45468350e+01, 
              4.23740637e+00,   2.79175988e+00,   8.45510919e+00,   2.58611755e+00,   7.28303647e+00, 
              5.38533348e-01,   2.37200892e+00,   7.65822327e+00,   7.70671662e+00,   6.65360199e+00, 
              2.30911490e+00,   1.64104102e+01,   7.55502039e+00,   1.01262942e+01,   9.86028991e+00, 
              5.55165383e+00,  -2.54825003e-01,   1.62644011e+00,  -1.20700028e+00,   7.68548063e-02, 
              6.37363710e+00,   3.78506846e+00,   9.72054088e+00,   1.49235273e+01,   1.10107205e+01, 
              2.35399321e+00,   1.00190970e+01,   4.36023369e+00,   7.66101944e+00,   2.11730936e+00, 
              5.10640109e-01,   8.08224494e+00,   6.26235171e+00,   4.90795428e+00,   1.83912468e+00, 
              1.48775464e+01,   9.45234334e+00,   1.53294300e+00,   6.36571042e+00,   2.18962679e+00, 
              8.57501848e+00,   1.50086973e+01,   2.72664220e+00,   8.62101872e+00,   9.88913096e+00, 
              7.01835210e+00,   9.02755298e-01,   1.64920016e+00,   7.03794207e+00,   4.96991047e+00, 
              9.00571018e+00,   7.18916046e-01,   5.18709021e+00,   1.46675083e+00,   4.25655255e+00, 
              5.47612322e+00,   6.87232406e+00,   8.64586523e+00,   4.39097879e+00,   1.59264126e+01, 
              5.82208475e+00,   6.18460821e+00,   1.00757449e+01,   1.95834567e+00,   3.58011959e+00, 
              2.44537868e+00,   3.24336282e+00,   3.75247413e+00,   5.99431884e+00,   7.46172627e+00, 
              5.89591998e+00,   1.49121501e+01,   6.49114133e+00,   3.72516283e+00,   1.03978412e+01, 
              9.18681726e+00,   6.25778802e+00,   2.86787616e+00,   5.56429543e+00,   6.68575516e+00, 
              5.63323353e+00,   5.63479197e-01,   3.79001333e+00,   1.45853265e+01,   4.27148600e+00, 
              2.75875635e+00,   8.44661578e+00,   2.60861753e+00,   7.26923666e+00,   5.60825262e-01, 
              2.38777010e+00,   7.64172370e+00,   7.73948354e+00,   6.63741543e+00,   2.34264415e+00, 
              1.64421493e+01,   7.56957392e+00,   1.01891141e+01,   9.91479501e+00,   5.59533434e+00, 
             -8.41648662e-02,   1.73238671e+00,  -1.38206071e+00,   6.65609793e-02,   6.17458348e+00, 
              3.66290639e+00,   9.77201663e+00,   1.50222482e+01,   1.10169404e+01,   2.37018529e+00, 
              1.00398446e+01,   4.30899503e+00,   7.62120766e+00,   2.10361547e+00,   5.32406260e-01, 
              8.12137724e+00,   6.22845711e+00,   4.83650271e+00,   1.86787502e+00,   1.48651378e+01, 
              9.40442890e+00,   1.56473748e+00,   6.32566176e+00,   2.17725763e+00,   8.61038748e+00, 
              1.50219984e+01,   2.76767698e+00,   8.66217550e+00,   9.94651376e+00,   7.00285930e+00, 
              8.87243380e-01,   1.63323963e+00,   7.04299736e+00,   4.98607975e+00,   9.06639016e+00, 
              6.76371744e-01,   5.21966361e+00,   1.42779047e+00,   4.27080336e+00,   5.43596559e+00, 
              6.85865372e+00,   8.57437660e+00,   4.40631866e+00,   1.59527166e+01,   5.79211585e+00, 
              6.23582712e+00,   1.00674399e+01,   1.94466399e+00,   3.61223100e+00,   2.32225990e+00, 
              2.97698748e+00,   3.60903865e+00,   6.09207748e+00,   7.52631571e+00,   5.97344484e+00, 
              1.49492801e+01,   6.35866985e+00,   3.70672100e+00,   1.04754141e+01,   9.19513920e+00, 
              6.05228169e+00,   3.01857603e+00,   5.54176632e+00,   6.65710914e+00,   5.51683811e+00, 
              4.78110361e-01,   3.62326527e+00,   1.46392444e+01,   4.40328528e+00,   2.74881125e+00, 
              8.40341399e+00,   2.63586516e+00,   7.29319401e+00,   5.76892541e-01,   2.36906594e+00, 
              7.64821657e+00,   7.75282308e+00,   6.62724841e+00,   2.32065833e+00,   1.64229864e+01, 
              7.51839441e+00,   1.03713842e+01,   9.97725266e+00,   5.73748824e+00,  -1.80801954e-01, 
              1.57556854e+00,  -1.36460659e+00,   1.90937638e-01,   6.03484279e+00,   3.57230734e+00, 
              9.93357984e+00,   1.50218741e+01,   1.11555605e+01,   2.39629402e+00,   1.00495484e+01, 
              4.30726492e+00,   7.59928845e+00,   2.09632475e+00,   4.62901013e-01,   8.13864786e+00, 
              6.20381673e+00,   4.87223374e+00,   1.92123421e+00,   1.48550399e+01,   9.34126638e+00, 
              1.56189832e+00,   6.33204629e+00,   2.15830743e+00,   8.66617048e+00,   1.50162188e+01, 
              2.74620802e+00,   8.61288265e+00,   9.90593143e+00,   6.94494712e+00,   9.15496340e-01, 
              1.66127065e+00,   7.05478946e+00,   4.95959645e+00,   9.07294199e+00,   6.40734029e-01, 
              5.15128146e+00,   1.38143113e+00,   4.19452019e+00,   5.46099393e+00,   6.85325541e+00, 
              8.53412215e+00,   4.35882478e+00,   1.60104619e+01,   5.85548127e+00,   6.23539378e+00, 
              1.00918677e+01,   2.08673800e+00,   3.59482628e+00,   2.26430980e+00,   2.93385948e+00, 
              3.53660847e+00,   5.92767487e+00,   7.76152559e+00,   5.94258731e+00,   1.51753669e+01, 
              6.48952477e+00,   3.95535614e+00,   1.06028450e+01,   9.22563477e+00,   6.02037212e+00, 
              3.20292791e+00,   5.34345043e+00,   6.47418429e+00,   5.47159127e+00,   4.93387964e-01, 
              3.78184503e+00,   1.47189530e+01,   4.31505803e+00,   2.75840833e+00,   8.37169884e+00, 
              2.63763328e+00,   7.24753048e+00,   5.99724921e-01,   2.39265064e+00,   7.66747042e+00, 
              7.65613782e+00,   6.63224926e+00,   2.25448146e+00,   1.64190290e+01,   7.49736098e+00, 
              1.03527262e+01,   9.91744005e+00,   5.55337943e+00,  -3.10653776e-01,   1.56760615e+00, 
             -1.32269867e+00,   1.47116841e-01,   6.16927710e+00,   3.51441007e+00,   1.00389019e+01, 
              1.49057661e+01,   1.11294310e+01,   2.37214610e+00,   1.00701061e+01,   4.34901031e+00, 
              7.59365899e+00,   2.07819875e+00,   4.54062937e-01,   8.14585571e+00,   6.18417966e+00, 
              4.88663876e+00,   1.93739963e+00,   1.48729356e+01,   9.33861309e+00,   1.48752598e+00, 
              6.28356864e+00,   2.13132773e+00,   8.61172735e+00,   1.50541293e+01,   2.71281475e+00, 
              8.60968551e+00,   9.90326665e+00,   6.92017511e+00,   8.94037598e-01,   1.65050116e+00, 
              7.05254510e+00,   4.95106648e+00,   9.05516756e+00,   6.94210293e-01,   5.11568316e+00, 
              1.38705927e+00,   4.12634319e+00,   5.40830337e+00,   6.89963097e+00,   8.56190961e+00, 
              4.33206992e+00,   1.59978950e+01,   5.83447754e+00,   6.26762819e+00,   1.00205375e+01, 
              1.80205822e+00,   3.63557422e+00,   2.37446866e+00,   2.87668510e+00,   3.43920613e+00, 
              5.82355762e+00,   7.84921575e+00,   6.03522142e+00,   1.51034262e+01,   6.43696600e+00, 
              4.02308006e+00,   1.07027099e+01,   9.35542927e+00,   6.07382478e+00,   3.09576102e+00, 
              5.20805008e+00,   6.40193765e+00,   5.49032014e+00,   4.83373066e-01,   3.85697672e+00, 
              1.47705877e+01,   4.59735235e+00,   2.79513783e+00,   8.39971120e+00,   2.60005308e+00, 
              7.26509853e+00,   6.59703115e-01,   2.33786109e+00,   7.64109588e+00,   7.64151996e+00, 
              6.63953767e+00,   2.27868867e+00,   1.64175591e+01,   7.49620074e+00,   1.05192033e+01, 
              9.71071486e+00,   5.43679505e+00,  -2.02199623e-01,   1.58117484e+00,  -1.38886042e+00, 
              9.68164093e-02,   6.16368663e+00,   3.28805025e+00,   9.97750217e+00,   1.49489104e+01, 
              1.09119679e+01,   2.38066526e+00,   9.98571950e+00,   4.28855657e+00,   7.60676763e+00, 
              2.04946619e+00,   4.97215071e-01,   8.10467524e+00,   6.15156255e+00,   4.90892425e+00, 
              1.91307823e+00,   1.48718604e+01,   9.36059455e+00,   1.46919875e+00,   6.32324689e+00, 
              2.13013056e+00,   8.55755497e+00,   1.50497644e+01,   2.68932881e+00,   8.59919880e+00, 
              9.95386255e+00,   6.94049368e+00,   9.05294082e-01,   1.64389227e+00,   7.04558873e+00, 
              4.95509390e+00,   9.07988881e+00,   6.75292216e-01,   5.11050136e+00,   1.37282313e+00, 
              4.09113386e+00,   5.37461435e+00,   6.95181792e+00,   8.54909125e+00,   4.32514223e+00, 
              1.60184921e+01,   5.80545867e+00,   6.02711936e+00,   1.01088814e+01,   1.81906261e+00, 
              3.85410166e+00,   2.31319591e+00,   2.73252436e+00,   3.61500305e+00,   6.02096593e+00, 
              7.79020300e+00,   5.93354243e+00,   1.53371033e+01,   6.45577253e+00,   3.88658532e+00, 
              1.08726495e+01,   9.27400063e+00,   6.02949406e+00,   2.91821971e+00,   5.24415488e+00, 
              6.39983974e+00,   5.61719838e+00,   4.87706650e-01,   3.71435334e+00,   1.47773894e+01, 
              4.48406511e+00,   2.81727539e+00,   8.35738553e+00,   2.60763702e+00,   7.22071913e+00, 
              7.04648564e-01,   2.32693565e+00,   7.66873351e+00,   7.70397299e+00,   6.66948805e+00, 
              2.25692180e+00,   1.63884519e+01,   7.50252978e+00,   1.02180700e+01,   9.83603610e+00, 
              5.71007579e+00,  -2.58425053e-01,   1.57085600e+00,  -1.28006848e+00,  -6.15410322e-02, 
              6.40403865e+00,   3.49469013e+00,   9.91260874e+00,   1.48768684e+01,   1.09862197e+01, 
              2.36425936e+00,   1.00454619e+01,   4.25615640e+00,   7.60764742e+00,   2.02261004e+00, 
              5.09880929e-01,   8.09678579e+00,   6.17496058e+00,   4.95283721e+00,   1.90848075e+00, 
              1.49431778e+01,   9.38429024e+00,   1.45745964e+00,   6.40176031e+00,   2.17194605e+00, 
              8.56524441e+00,   1.51099946e+01,   2.64327372e+00,   8.62326905e+00,   9.97279814e+00, 
              6.91677550e+00,   8.48659511e-01,   1.69444952e+00,   7.03817991e+00,   4.96430683e+00, 
              9.13033722e+00,   7.35688153e-01,   5.05549043e+00,   1.46264954e+00,   4.13097578e+00, 
              5.40382268e+00,   7.00027650e+00,   8.59450630e+00,   4.31871671e+00,   1.60379546e+01, 
              5.73091310e+00,   6.24502050e+00,   1.00050389e+01,   1.77106047e+00,   3.91702605e+00, 
              2.41194190e+00,   2.77238597e+00,   3.49979813e+00,   6.18777416e+00,   7.71740357e+00, 
              5.92143100e+00,   1.52915432e+01,   6.65016118e+00,   3.72589540e+00,   1.07608137e+01, 
              9.43695240e+00,   6.01190109e+00,   3.02376729e+00,   5.15427693e+00,   6.31714189e+00, 
              5.69032800e+00,   5.41503526e-01,   3.56300334e+00,   1.47172550e+01,   4.31291430e+00, 
              2.79200726e+00,   8.39317763e+00,   2.62879006e+00,   7.14020013e+00,   6.59538489e-01, 
              2.35898697e+00,   7.71890713e+00,   7.71635974e+00,   6.75820428e+00,   2.27495774e+00, 
              1.64187682e+01,   7.44379821e+00,   1.01551058e+01,   1.00272871e+01,   5.65679699e+00, 
             -2.49037911e-01,   1.69258190e+00,  -1.27938291e+00,  -2.18971733e-01,   6.42617527e+00, 
              3.57537977e+00,   9.91158608e+00,   1.49233107e+01,   1.11126327e+01,   2.35564159e+00, 
              1.00564313e+01,   4.28108654e+00,   7.66687514e+00,   2.06533490e+00,   4.83481668e-01, 
              8.05360834e+00,   6.26584946e+00,   4.90336543e+00,   1.90248847e+00,   1.49375610e+01, 
              9.38000572e+00,   1.46414149e+00,   6.42523717e+00,   2.14890110e+00,   8.58370997e+00, 
              1.50684076e+01,   2.61691882e+00,   8.60529918e+00,   9.94972927e+00,   6.87238878e+00, 
              7.96859667e-01,   1.70188970e+00,   7.01238538e+00,   4.98011222e+00,   9.21710930e+00, 
              7.75834173e-01,   5.10503786e+00,   1.45531401e+00,   4.06478840e+00,   5.39656537e+00, 