LAMMPS data file
  
30 atoms
4 atom types

0.0 6.93320000 xlo xhi
0.0 6.00432733 ylo yhi
0.0 5.45520000 zlo zhi
-3.46660000 0.0 0.0 xy xz yz

Masses

1 1.00794
2 12.011
3 14.0067
4 15.9994

Atoms

 1 4    5.08931760        3.32262378        0.08620990
 2 4    1.51154264        2.74603029        1.90482819
 3 4    0.33280939        5.93952679        3.72301391
 4 4    6.01251965        1.28147375        5.40563801
 5 4    2.81714700        4.56641964        1.76884720
 6 4    1.57014732        0.15671918        3.58732190
 7 2    5.57186227        2.35729879        4.89401274
 8 2    2.10582197        3.64679413        1.25733133
 9 2    2.72213606        0.00027675        3.07565357
10 2   -1.25301367        2.53126968        3.38148894
11 2    1.90103680        3.65339850        5.20000256
12 2   -0.64800908        5.82388525        1.56310515
13 3    5.96501312        1.25552228        2.70225828
14 3    2.86327256        4.53808722        4.52070946
15 3    1.57134698        0.21083315        0.88391180
16 1   -0.43021582        3.22504368        3.16654637
17 1    0.88875207        4.01888000        4.98501413
18 1   -0.45861111        4.76444866        1.34808188
19 1    4.76075005        2.95827879        2.96206917
20 1    1.99113614        2.64362796        4.78065762
21 1    3.64811196        0.40233614        1.14373538
22 1    5.96539644        1.35491582        1.64606372
23 1    2.77694475        4.48875324        3.46451660
24 1    1.65722566        0.16082709        5.28290926
25 1   -0.04093908        0.88246609        2.99758966
26 1    2.72265386        5.52760683        4.81607598
27 1   -2.68197228        5.59869063        1.17921298
28 1    5.21013252        0.57100367        2.97131460
29 1    3.83356392        4.22667952        4.78971011
30 1    1.35611932        1.20686572        1.15304764
