<simulation verbosity='high'>
   <prng>
      <seed>4441</seed>
      <state shape='(624)'>
       [ 686513181, 3404458350, 4040296085, 4059517176, 1208901632, 
         1843080309, 2504893394, 1817074788, 3342404498, 1805355775, 
         1511793338, 315663919, 2207307076, 866784446, 1878539536, 
         42689263, 513413647, 3157123831, 4027458141, 4023881209, 
         3528750904, 2711116637, 1630689028, 1631785891, 4064572864, 
         1237086063, 948172497, 347374208, 2761203139, 1490235278, 
         1544474013, 2931099584, 2041602010, 3826415724, 3723346317, 
         295236545, 1547358929, 4134881296, 3733785543, 997850802, 
         279349903, 2595276071, 2965947069, 4143299537, 3188575343, 
         3504117481, 916322007, 2517455918, 1129723821, 3647986611, 
         1691075988, 1526511879, 2792627956, 2202315979, 4138392434, 
         1682934638, 3433775204, 715413442, 546388915, 406795453, 
         1364160620, 734153666, 1298647043, 2721661239, 3468169050, 
         1406833089, 4020710276, 780964561, 2804999555, 669160436, 
         3417215200, 904714969, 1705150410, 2803215621, 971080075, 
         2355438442, 3564357661, 3397874523, 3397167657, 3580727844, 
         2570538858, 2292463441, 3591936976, 1492606753, 1261990519, 
         788364405, 200979054, 3093607669, 3934088724, 1646384733, 
         1825554793, 3510524020, 756551197, 1582329546, 3385217113, 
         2829789335, 1068998876, 95468116, 2715959945, 3093947576, 
         1655471256, 2324745328, 2257438341, 895034312, 3275493141, 
         3364302277, 311358441, 1895793323, 295500302, 682445372, 
         3193851438, 3979293095, 1385367142, 3000227784, 2723761839, 
         2260048479, 671004861, 1807677714, 490581251, 91145332, 
         1535932741, 3939179994, 2899904846, 1934243343, 3239562700, 
         330195492, 3837774763, 862324968, 1522032119, 2670816378, 
         960357342, 1602721307, 183159752, 1688188927, 2229294487, 
         2863422208, 2061003472, 2406781590, 3434250915, 860973787, 
         1810624288, 1079294585, 1000388563, 4237159343, 4017171679, 
         1277145398, 46083389, 2434958510, 396088032, 1410001330, 
         27731096, 2311926080, 3671446276, 1540840044, 729671830, 
         2787074492, 1416870221, 3178482056, 1517653230, 386742225, 
         2658720438, 2567353709, 2050406788, 4197164892, 97841129, 
         593065737, 1247550202, 85496631, 2091929045, 2504422552, 
         3734343681, 718503141, 1150558451, 585625307, 1160959728, 
         3730691819, 3572219286, 2617532096, 494713438, 4036937758, 
         3927059554, 253027173, 269040611, 4273278947, 3622350134, 
         3128844174, 2659945142, 320755835, 2369173506, 3928583312, 
         1515629811, 1104656105, 4285401981, 1656386012, 2764660375, 
         1379538013, 1458645799, 1026664950, 88265293, 2323917296, 
         4209259775, 866337286, 104256121, 2324321982, 3317223001, 
         2285598840, 3970159164, 2551274150, 3528644288, 1834715390, 
         3224098852, 1416273145, 3078501734, 4155781274, 2640728021, 
         2056991480, 1083689142, 1841089730, 571788080, 1059347946, 
         3535450227, 493883822, 1171122594, 2786564327, 2320689005, 
         4048537668, 1770193225, 1848560010, 3656001833, 1070991878, 
         2996234348, 2393031391, 1065699556, 1511446450, 2040234618, 
         53086723, 3520741457, 753280507, 1875846599, 3393427545, 
         1067755898, 2680240489, 1463481119, 2841689504, 188197606, 
         4211686908, 2578345037, 446650171, 3193718675, 2734279686, 
         3565426746, 3231652764, 2517589511, 3286942942, 3788717034, 
         1705324771, 2085159468, 1518317856, 1709917281, 3556006813, 
         1604184402, 985576196, 888782649, 4065259920, 1988729156, 
         516435725, 772673447, 1015373778, 2710798403, 349783128, 
         4203433060, 138554515, 1747732990, 1568510488, 3122090935, 
         4017873699, 441042677, 4020669231, 3411215717, 3878434519, 
         245669918, 268393394, 2934696076, 1572342708, 3328025095, 
         4100852993, 2907186617, 2720463978, 990008364, 2706695836, 
         2615087559, 229888633, 3817338227, 2180519287, 732919568, 
         3201627713, 2286183229, 58439567, 2431000541, 3904987587, 
         2914452288, 3829997255, 3680535763, 274110834, 2015404325, 
         2095266928, 724386763, 2211084734, 4206814362, 2352486744, 
         1025022891, 1565722687, 260286502, 3144979402, 2659589590, 
         4157163715, 562174066, 3236357290, 1232266581, 2528810600, 
         2783703773, 3580142588, 1774856714, 763714089, 3558917273, 
         3625662117, 3698675738, 2069685779, 952590880, 3780219295, 
         4019037758, 4283398824, 2212845537, 1884678220, 3873266478, 
         2381385877, 639971193, 2283627787, 1020439823, 405969296, 
         3778380801, 2599087892, 1414145285, 3202696587, 1033201967, 
         2662475676, 1174168568, 3839314968, 212843794, 2203675201, 
         1613682841, 3312472600, 2478268716, 691209663, 3809354860, 
         28378104, 3636842108, 4225033671, 3321403210, 1647856705, 
         3939499470, 4209470799, 1561410017, 4290745563, 1669877376, 
         535253202, 827538491, 2229689509, 4152357730, 1792788806, 
         353157315, 3979971990, 3827908807, 3094515891, 2669601727, 
         1567692463, 1046811342, 1554761400, 3300843427, 3044964659, 
         597248180, 503032248, 4015075925, 94233665, 1457901869, 
         4242728802, 566028843, 3775645353, 1045811778, 307474427, 
         1551377972, 3805493302, 511885736, 4157935114, 3803768440, 
         3304091584, 1698730902, 2358263924, 4138365670, 323413424, 
         1971052644, 604529186, 2225722886, 3903361888, 3926877587, 
         1716864207, 1040708357, 2905121507, 2182259941, 1631143435, 
         2463115354, 2890960118, 3754381045, 3772292547, 3026204575, 
         1531500379, 4171707962, 1627669634, 1737835135, 1394947285, 
         1731023377, 1752428686, 1328257473, 2930910693, 2262492339, 
         1523198376, 1154431900, 3573711117, 556193437, 2443893040, 
         3444494162, 867280687, 3777803737, 4231346991, 431764092, 
         3682741225, 3595093450, 1896798496, 681826155, 2022794548, 
         280466463, 3741642825, 3383359882, 1854507599, 3612982051, 
         3089885264, 664595337, 3565375216, 966812385, 2524453118, 
         3186487976, 1359487277, 3211528476, 2950142621, 1935822779, 
         2764214633, 3303951984, 2555220569, 2350118630, 243199986, 
         3528913460, 2227615265, 1861938964, 3004142784, 3348006883, 
         2078316217, 1570597241, 780929236, 4058970335, 989077872, 
         3950516887, 1238207843, 2207164426, 1142033690, 1951216287, 
         3118545022, 3586220385, 3800842162, 683790855, 109423408, 
         1913584464, 1822164246, 559632475, 4101272136, 1532882986, 
         2779669210, 1994461731, 3784029347, 321435849, 1695970160, 
         500020381, 4096091322, 1242733582, 3332184856, 3560185547, 
         3765561074, 503837295, 1009313318, 3199192604, 1982974190, 
         2498346649, 2991399590, 1072716917, 4038980628, 2319112208, 
         325138611, 2355869822, 3324778409, 4075430619, 4011440727, 
         868798155, 2233937620, 2276091735, 1803895726, 322802913, 
         673021935, 1022332084, 187322109, 3185919597, 941576508, 
         1017516943, 449311091, 189200297, 248390814, 345179104, 
         509091281, 1787176039, 1007708766, 2961423591, 311747228, 
         4039579591, 2977999004, 1110355357, 3172630153, 2774306794, 
         1159871551, 3265448926, 2381612499, 1672169156, 3290754029, 
         1576902188, 1086748660, 1658241454, 3257659233, 69569123, 
         500652046, 353767264, 2604495676, 4208105191, 3373137407, 
         2525837434, 3188137547, 2888631086, 1116449957, 3799312015, 
         2025249313, 1866033266, 481344586, 1531095302, 3385076871, 
         40802116, 2680185404, 3489239212, 2012774321, 3161712593, 
         600482491, 1022791897, 1922789768, 3964513165, 688293986, 
         3887206068, 1924756493, 4207374666, 789902070, 1494558112, 
         3757397106, 1694091112, 1836807147, 1255842677, 1936429840, 
         808221251, 4245861229, 2169354804, 2240277629, 2981096296, 
         443841330, 3742647218, 2460120785, 899519327, 1082341384, 
         1703657382, 962031418, 4286613465, 1161338572, 47937737, 
         1614751701, 1971351299, 536109802, 4291948196, 153855823, 
         3270232836, 3834053275, 412259492, 188586014, 1218914387, 
         1253362460, 2526310298, 1404296898, 1904150669, 968161928, 
         2513663880, 2070900444, 2824164085, 2623894843, 460973214, 
         2911868793, 1822046676, 1843445675, 4186829429, 753646084, 
         38593589, 659518924, 2521410975, 3896347975 ]
      </state>
      <set_pos>592</set_pos>
   </prng>
   <output prefix='simulation'>
      <properties shape='(6)' stride='10'>
       [ step, time{picosecond}, potential{electronvolt}, conserved, temperature{kelvin}, 
         ensemble_temperature{kelvin} ]
      </properties>
      <trajectory filename='pos' stride='10'>positions</trajectory>
      <trajectory filename='frc' stride='10'>forces</trajectory>
      <checkpoint stride='1000'>81</checkpoint>
   </output>
   <step>80000</step>
   <total_steps>80000</total_steps>
   <total_time>  2.50000000e+05</total_time>
   <ffsocket mode='unix' name='driver-dftb'>
      <address>dftb-nvt-bI</address>
   </ffsocket>
   <ffsocket mode='unix' name='driver-gap'>
      <address>gapd-nvt-bI</address>
   </ffsocket>
   <system>
      <forces>
         <force forcefield='driver-dftb'>
         </force>
         <force forcefield='driver-gap'>
         </force>
      </forces>
      <ensemble>
         <temperature>  3.16681520e-04</temperature>
         <eens>  1.21592046e+01</eens>
         <hamiltonian_weights shape='(2)'> [   1.00000000e+00,   1.00000000e+00 ] </hamiltonian_weights>
         <time>  1.65365492e+06</time>
      </ensemble>
      <motion mode='dynamics'>
         <dynamics mode='nvt'>
            <thermostat mode='langevin'>
               <ethermo> -3.21634801e+01</ethermo>
               <tau>  4.13413730e+03</tau>
            </thermostat>
            <timestep>  2.06706865e+01</timestep>
            <nmts shape='(1)'> [ 1 ] </nmts>
         </dynamics>
      </motion>
      <beads natoms='24' nbeads='32'>
         <q shape='(32, 72)'>
          [   1.99994623e+00,   4.79104436e+00,   1.40699938e-01,   5.35946210e+00,   7.78313509e+00, 
              1.12256788e+01,   1.93000198e+00,   1.09176727e+01,   5.65233490e+00,   6.20811971e+00, 
              1.66764816e+00,   6.15240941e+00,   1.38457151e-02,   4.58123439e+00,   2.02761987e+00, 
              7.19035853e+00,   7.79270122e+00,   9.23864987e+00,   3.76443007e+00,   1.07878937e+01, 
              3.76086277e+00,   4.25868237e+00,   1.62860037e+00,   7.98035671e+00,  -1.02524441e+00, 
              6.24843992e+00,   9.50080616e+00,   8.38034548e+00,   6.20844588e+00,   1.77846399e+00, 
              2.07641763e+00,   1.23880751e+01,   7.78420567e+00,   5.82733822e+00,  -4.88930517e-02, 
              4.16613852e+00,   3.85236516e+00,   3.79379977e+00,   5.62854383e-01,   3.59284331e+00, 
              8.65291283e+00,   1.10072738e+01,   1.58971811e-01,   9.64998015e+00,   5.36819847e+00, 
              7.73620140e+00,   3.12805040e+00,   6.01748284e+00,   5.80292204e-01,   3.09259626e+00, 
              3.52722139e+00,   6.84367351e+00,   8.42015250e+00,   7.25481481e+00,   3.26054299e+00, 
              9.10018991e+00,   2.50974680e+00,   4.24330917e+00,   2.75697270e+00,   9.35681349e+00, 
             -1.79759311e-03,   6.35550317e+00,   7.70859911e+00,   6.64532615e+00,   6.08948542e+00, 
              3.15253246e+00,   5.07847877e-01,   1.23289051e+01,   9.36416687e+00,   7.25945113e+00, 
             -5.16308680e-01,   2.51265731e+00,   2.04312976e+00,   4.71680060e+00,   1.40963734e-01, 
              5.39919111e+00,   7.80540175e+00,   1.11947002e+01,   1.83172560e+00,   1.08844010e+01, 
              5.66107480e+00,   6.07714424e+00,   1.60056088e+00,   6.14596637e+00,   5.37459634e-02, 
              4.51183557e+00,   1.96903002e+00,   7.07636660e+00,   7.69053190e+00,   9.19503665e+00, 
              3.73531373e+00,   1.07602626e+01,   3.80128052e+00,   4.21218193e+00,   1.64340669e+00, 
              7.99105007e+00,  -9.86395682e-01,   6.26989322e+00,   9.41856318e+00,   8.34759629e+00, 
              6.10227581e+00,   1.83348686e+00,   2.00137901e+00,   1.23707230e+01,   7.86570030e+00, 
              5.82743708e+00,  -1.09095150e-01,   4.06129461e+00,   3.83885039e+00,   3.45083931e+00, 
              3.81254771e-01,   3.68119045e+00,   9.01731581e+00,   1.09305111e+01,   1.45549457e-01, 
              9.72427370e+00,   5.49578157e+00,   7.69463001e+00,   3.20215379e+00,   5.93291530e+00, 
              2.52614775e-01,   3.01452220e+00,   3.33786769e+00,   7.01111544e+00,   8.55215517e+00, 
              7.29425413e+00,   3.49802040e+00,   9.00538834e+00,   2.53232604e+00,   4.35072928e+00, 
              2.99796347e+00,   9.55581728e+00,   4.99555652e-01,   6.47379934e+00,   7.79799008e+00, 
              6.82577031e+00,   6.25196469e+00,   3.42919588e+00,   5.72231529e-01,   1.23721966e+01, 
              9.34267387e+00,   7.24884562e+00,  -2.66890186e-01,   2.66105388e+00,   1.97574880e+00, 
              4.73579646e+00,   8.96124508e-02,   5.42216307e+00,   7.78083892e+00,   1.11182065e+01, 
              1.79701123e+00,   1.09342674e+01,   5.54370755e+00,   6.04218681e+00,   1.56852877e+00, 
              6.06918827e+00,   7.79925039e-02,   4.58341440e+00,   1.90953721e+00,   7.16212623e+00, 
              7.63691457e+00,   9.11891919e+00,   3.67510422e+00,   1.07780031e+01,   3.86987488e+00, 
              4.26335935e+00,   1.63197287e+00,   7.99291085e+00,  -1.01828618e+00,   6.30701398e+00, 
              9.42164392e+00,   8.35683287e+00,   6.16665201e+00,   1.86762135e+00,   2.10418662e+00, 
              1.25124166e+01,   7.80382467e+00,   5.85518938e+00,  -1.87626788e-01,   4.06198789e+00, 
              3.53893557e+00,   3.25988487e+00,   3.17573043e-01,   3.58025785e+00,   8.92371275e+00, 
              1.11295453e+01,   2.88741375e-03,   9.81135658e+00,   5.34743048e+00,   7.64241193e+00, 
              2.93365289e+00,   5.91832593e+00,   1.81304010e-01,   2.58333852e+00,   3.61642629e+00, 
              6.85470908e+00,   8.74871295e+00,   7.47529435e+00,   3.57133706e+00,   9.25528792e+00, 
              2.76589925e+00,   4.59471003e+00,   2.99084896e+00,   9.44079278e+00,   3.26468924e-01, 
              6.19642024e+00,   7.44466118e+00,   6.78440454e+00,   6.47296183e+00,   3.16008667e+00, 
              8.72149486e-01,   1.24106872e+01,   9.40484556e+00,   7.11454612e+00,  -1.56885409e-01, 
              2.50552085e+00,   1.90880018e+00,   4.58805942e+00,   1.86354990e-01,   5.31820959e+00, 
              7.73678757e+00,   1.10630391e+01,   1.81631222e+00,   1.08546560e+01,   5.60538568e+00, 
              6.11309513e+00,   1.59192173e+00,   5.98900853e+00,   7.53730917e-02,   4.54494455e+00, 
              1.95784956e+00,   7.16916702e+00,   7.60421994e+00,   9.24357913e+00,   3.57977471e+00, 
              1.07593910e+01,   3.80209008e+00,   4.38730570e+00,   1.60100941e+00,   7.95385633e+00, 
             -1.00214669e+00,   6.22794307e+00,   9.46928967e+00,   8.38736355e+00,   6.15600117e+00, 
              1.82403345e+00,   2.18741475e+00,   1.24274382e+01,   7.77599564e+00,   5.89801278e+00, 
             -2.25517189e-01,   4.08420835e+00,   3.76271880e+00,   3.50456739e+00,   1.74369428e-01, 
              3.70168163e+00,   8.97216230e+00,   1.11097848e+01,  -1.06029964e-01,   9.86348551e+00, 
              5.21126167e+00,   7.89648610e+00,   3.13866332e+00,   5.87624265e+00,   4.98498358e-01, 
              3.22916717e+00,   3.51235832e+00,   7.02966872e+00,   8.71942992e+00,   7.59319062e+00, 
              3.50139759e+00,   9.31136471e+00,   2.45498878e+00,   4.78343570e+00,   2.63198279e+00, 
              9.57939539e+00,   1.84896639e-01,   6.31803611e+00,   7.76105872e+00,   6.76949381e+00, 
              6.33624302e+00,   3.32826324e+00,   6.09810692e-01,   1.24283095e+01,   9.26664051e+00, 
              7.08677140e+00,  -3.07453902e-01,   2.43281753e+00,   1.97825245e+00,   4.59456189e+00, 
              1.07440948e-01,   5.21156584e+00,   7.69954035e+00,   1.10460490e+01,   1.80173197e+00, 
              1.08725384e+01,   5.70952125e+00,   6.17119036e+00,   1.62472182e+00,   6.02442632e+00, 
              2.80302329e-02,   4.47635067e+00,   1.97229499e+00,   7.20129779e+00,   7.58643152e+00, 
              9.18872584e+00,   3.59915253e+00,   1.07731188e+01,   3.82387712e+00,   4.37705493e+00, 
              1.54780555e+00,   8.13884352e+00,  -9.32027454e-01,   6.21778406e+00,   9.54985209e+00, 
              8.43203293e+00,   6.12254796e+00,   1.73936200e+00,   2.24889120e+00,   1.24706618e+01, 
              7.86935692e+00,   5.84417664e+00,  -1.89431744e-01,   4.11510163e+00,   3.63443104e+00, 
              3.52211820e+00,   4.29170335e-02,   3.46396600e+00,   8.95306232e+00,   1.10573660e+01, 
              5.54659527e-03,   1.01857466e+01,   5.58224418e+00,   7.71639621e+00,   2.94378626e+00, 
              5.96904113e+00,   3.76436709e-01,   2.93184686e+00,   3.43957967e+00,   6.86387695e+00, 
              8.78902725e+00,   7.42627096e+00,   3.29420303e+00,   8.98777332e+00,   2.56398276e+00, 
              5.01474161e+00,   2.61219234e+00,   9.71205360e+00,   3.88042618e-01,   6.40471931e+00, 
              7.98528306e+00,   6.95691553e+00,   6.02023513e+00,   3.21391588e+00,   7.54660876e-01, 
              1.24853728e+01,   9.20947808e+00,   6.90175410e+00,  -1.22840037e-02,   2.47414683e+00, 
              1.95249522e+00,   4.55528817e+00,   1.36079562e-01,   5.21938206e+00,   7.62248044e+00, 
              1.10222300e+01,   1.76102586e+00,   1.09142733e+01,   5.77439949e+00,   6.20233836e+00, 
              1.64360154e+00,   6.01304541e+00,   5.31844974e-02,   4.50099569e+00,   1.96126510e+00, 
              7.25723393e+00,   7.61250548e+00,   9.26398106e+00,   3.56936595e+00,   1.07495036e+01, 
              3.80315147e+00,   4.36155028e+00,   1.57679426e+00,   8.02658174e+00,  -8.82378305e-01, 
              6.15835595e+00,   9.68135973e+00,   8.46344886e+00,   6.19293989e+00,   1.75834546e+00, 
              2.27824549e+00,   1.24432143e+01,   7.80746452e+00,   5.85567936e+00,  -1.77683019e-01, 
              4.03472130e+00,   3.52207791e+00,   3.52425940e+00,   3.45551037e-01,   3.51441103e+00, 
              8.74198338e+00,   1.07526622e+01,  -8.72915101e-03,   9.78301465e+00,   5.54291947e+00, 
              7.64941604e+00,   3.13325070e+00,   6.08513183e+00,   5.03405498e-01,   3.46883687e+00, 
              3.59006378e+00,   6.98358821e+00,   8.74935535e+00,   7.76141118e+00,   3.43360976e+00, 
              8.97104952e+00,   2.71272277e+00,   4.82814194e+00,   2.68997287e+00,   9.59191875e+00, 
              3.07887339e-01,   6.21111103e+00,   7.76879628e+00,   7.08189138e+00,   5.96863447e+00, 
              3.41427787e+00,   9.80670296e-01,   1.25436112e+01,   9.24482033e+00,   7.14865985e+00, 
             -5.90571921e-01,   2.63101784e+00,   1.93602247e+00,   4.61404733e+00,   1.10174249e-01, 
              5.26395848e+00,   7.63583439e+00,   1.10398704e+01,   1.86631007e+00,   1.08601215e+01, 
              5.80208325e+00,   6.18241619e+00,   1.60479390e+00,   6.08859716e+00,   9.75172332e-02, 
              4.53576097e+00,   1.99551751e+00,   7.25914708e+00,   7.66302376e+00,   9.23075040e+00, 
              3.66513435e+00,   1.06811162e+01,   3.88357291e+00,   4.41128924e+00,   1.50016240e+00, 
              8.01687938e+00,  -1.00121693e+00,   6.21897538e+00,   9.73753696e+00,   8.45108014e+00, 
              6.12129028e+00,   1.78886671e+00,   2.27241614e+00,   1.24567598e+01,   7.75623559e+00, 
              5.86814480e+00,  -1.33312120e-01,   4.00743746e+00,   3.72411619e+00,   3.64176417e+00, 
              2.79489316e-01,   3.52286535e+00,   8.54182872e+00,   1.06378931e+01,   6.57011278e-02, 
              1.01789944e+01,   5.25396673e+00,   7.32024342e+00,   3.48592519e+00,   6.09900439e+00, 
              4.08309987e-01,   3.48064062e+00,   3.59721645e+00,   7.15786949e+00,   8.84171505e+00, 
              7.44473751e+00,   3.49925211e+00,   9.01796387e+00,   2.50333118e+00,   4.92283607e+00, 
              2.53906555e+00,   9.67416661e+00,   2.81441834e-01,   6.54960405e+00,   7.95606111e+00, 
              6.90137946e+00,   5.65376758e+00,   3.24581008e+00,   1.13039520e+00,   1.23685645e+01, 
              9.37120989e+00,   7.53738632e+00,  -5.78192657e-01,   2.70517129e+00,   1.94966992e+00, 
              4.63054661e+00,   2.00861948e-01,   5.27040872e+00,   7.56223965e+00,   1.11039134e+01, 
              1.81102809e+00,   1.08512751e+01,   5.82230585e+00,   6.18237841e+00,   1.56773122e+00, 
              6.11272201e+00,  -8.02956142e-03,   4.53075572e+00,   1.99448400e+00,   7.26831509e+00, 
              7.67384053e+00,   9.19045506e+00,   3.69992614e+00,   1.06596881e+01,   3.84941737e+00, 
              4.39511557e+00,   1.46077159e+00,   8.10853169e+00,  -9.49597391e-01,   6.24469932e+00, 
              9.80096963e+00,   8.41911018e+00,   6.04713934e+00,   1.72390409e+00,   2.21603715e+00, 
              1.24336637e+01,   7.83318404e+00,   5.80751779e+00,  -2.41584948e-02,   4.03643682e+00, 
              3.74147512e+00,   3.82245985e+00,   7.30353691e-01,   3.64958378e+00,   8.65890700e+00, 
              1.09850425e+01,   2.29340454e-02,   9.98640009e+00,   5.57721268e+00,   7.29721384e+00, 
              3.48080976e+00,   5.62346568e+00,   2.50667576e-01,   3.10016121e+00,   3.71175287e+00, 
              7.38762359e+00,   8.83916766e+00,   7.30430534e+00,   3.57941976e+00,   8.98937524e+00, 
              2.67506056e+00,   4.96569068e+00,   2.71219717e+00,   9.71261129e+00,   3.90621272e-01, 
              6.17366767e+00,   8.02033527e+00,   7.01795569e+00,   5.81235597e+00,   3.38376923e+00, 
              8.75777462e-01,   1.24919436e+01,   9.20316271e+00,   7.58392746e+00,  -3.03376289e-01, 
              2.65320622e+00,   1.96722056e+00,   4.62285411e+00,   1.77648680e-01,   5.30867318e+00, 
              7.64885755e+00,   1.10201345e+01,   1.82713415e+00,   1.08129641e+01,   5.77730103e+00, 
              6.17901504e+00,   1.56911143e+00,   6.07480174e+00,  -6.09274392e-02,   4.45807715e+00, 
              1.98971036e+00,   7.26943395e+00,   7.66375184e+00,   9.30073180e+00,   3.74817664e+00, 
              1.06795165e+01,   3.88735639e+00,   4.42002577e+00,   1.50761058e+00,   8.07554136e+00, 
             -9.17224620e-01,   6.19936124e+00,   9.77309946e+00,   8.26876713e+00,   6.10406474e+00, 
              1.73244567e+00,   2.26379026e+00,   1.23178463e+01,   7.82581999e+00,   5.82472480e+00, 
              1.56441301e-02,   4.08357664e+00,   3.85910083e+00,   3.58455836e+00,   6.68169027e-01, 
              3.60306459e+00,   8.80935736e+00,   1.09105454e+01,   2.88806480e-01,   9.53890677e+00, 
              5.65662997e+00,   7.66395854e+00,   2.92179596e+00,   6.01013633e+00,  -1.10579523e-02, 
              3.25934007e+00,   3.59865072e+00,   7.47339804e+00,   8.62976620e+00,   7.32234169e+00, 
              3.74260129e+00,   9.10406663e+00,   2.62490410e+00,   4.69386657e+00,   2.79211587e+00, 
              9.58359671e+00,   3.43375025e-01,   6.20632921e+00,   8.34469661e+00,   6.66325722e+00, 
              6.06037275e+00,   3.18104440e+00,   7.79323463e-01,   1.26751210e+01,   9.08568524e+00, 
              7.49427825e+00,  -2.51840475e-01,   2.64542000e+00,   2.03081717e+00,   4.60855656e+00, 
              1.31622449e-01,   5.37817452e+00,   7.66865513e+00,   1.10767320e+01,   1.80499871e+00, 
              1.08155466e+01,   5.75492345e+00,   6.21765994e+00,   1.63864547e+00,   6.09173260e+00, 
              3.16946247e-02,   4.48757017e+00,   2.05907581e+00,   7.35840621e+00,   7.64096654e+00, 
              9.21694743e+00,   3.77083255e+00,   1.07318013e+01,   3.90850203e+00,   4.35035968e+00, 
              1.51586166e+00,   8.03480616e+00,  -1.02017453e+00,   6.20824462e+00,   9.73143545e+00, 
              8.26746573e+00,   6.09242058e+00,   1.72246365e+00,   2.30270933e+00,   1.23915757e+01, 
              7.74207835e+00,   5.95692969e+00,  -8.56889038e-03,   4.01675875e+00,   3.87738673e+00, 
              3.61767240e+00,   7.35200377e-01,   3.71026898e+00,   8.79677469e+00,   1.08795208e+01, 
              5.69036595e-01,   9.35550438e+00,   5.89212810e+00,   7.69543062e+00,   2.98833106e+00, 
              6.42878804e+00,   5.76909087e-01,   3.18937483e+00,   3.82097687e+00,   6.86517422e+00, 
              8.78178383e+00,   7.66787775e+00,   3.71346947e+00,   9.40772469e+00,   2.35355130e+00, 
              4.85598937e+00,   2.93211299e+00,   9.53161961e+00,   5.84490939e-01,   6.29800139e+00, 
              8.48409908e+00,   6.79688425e+00,   6.23011615e+00,   3.01026197e+00,   6.88973422e-01, 
              1.26622301e+01,   9.15450377e+00,   7.33089107e+00,  -3.33942244e-01,   2.78634172e+00, 
              2.12545879e+00,   4.63098134e+00,   1.23997833e-01,   5.37702357e+00,   7.69094620e+00, 
              1.10464640e+01,   1.77604629e+00,   1.08063342e+01,   5.78808428e+00,   6.23961207e+00, 
              1.58192030e+00,   6.03803126e+00,   3.43235236e-02,   4.47272848e+00,   2.04172764e+00, 
              7.33672521e+00,   7.68462221e+00,   9.16875205e+00,   3.83936407e+00,   1.07064004e+01, 
              3.89285100e+00,   4.41854584e+00,   1.59742258e+00,   8.02669061e+00,  -8.97795751e-01, 
              6.21079903e+00,   9.62507868e+00,   8.31897178e+00,   6.03402789e+00,   1.74953184e+00, 
              2.31023944e+00,   1.25555905e+01,   7.78635116e+00,   5.94324057e+00,  -1.61691640e-02, 
              3.98585032e+00,   3.67653775e+00,   3.64584314e+00,   8.54413976e-01,   3.65884867e+00, 
              8.45614277e+00,   1.07861636e+01,   2.51732992e-01,   9.47700566e+00,   5.59956392e+00, 
              7.62414396e+00,   2.80862119e+00,   6.56686287e+00,   4.65381562e-01,   3.21149378e+00, 
              3.88028542e+00,   7.04715406e+00,   8.93208252e+00,   7.84031687e+00,   3.73973133e+00, 
              9.33179648e+00,   2.18692131e+00,   4.63427821e+00,   3.26876359e+00,   9.38764928e+00, 
              9.98992008e-01,   6.53328606e+00,   8.40827384e+00,   6.72896041e+00,   6.24070020e+00, 
              2.99939707e+00,   7.72506685e-01,   1.27998385e+01,   8.99285744e+00,   7.45182311e+00, 
             -1.47800394e-01,   2.73964381e+00,   2.04746945e+00,   4.53293129e+00,   1.89917763e-01, 
              5.45401253e+00,   7.72823887e+00,   1.09989630e+01,   1.92060199e+00,   1.06982981e+01, 
              5.84326159e+00,   6.23341663e+00,   1.46222766e+00,   6.01597321e+00,  -7.57402856e-03, 
              4.49821052e+00,   2.01367157e+00,   7.35941293e+00,   7.75552751e+00,   9.27259756e+00, 
              3.81052985e+00,   1.07234118e+01,   3.89053228e+00,   4.36192750e+00,   1.68120759e+00, 
              8.01777681e+00,  -8.96052368e-01,   6.27908941e+00,   9.59638133e+00,   8.39601665e+00, 
              6.07053299e+00,   1.74100479e+00,   2.22605634e+00,   1.24998632e+01,   7.70785540e+00, 
              5.90993195e+00,  -9.12359361e-02,   4.04505674e+00,   3.83379629e+00,   3.73716673e+00, 
              6.85642698e-01,   3.62845513e+00,   8.54952958e+00,   1.07087306e+01,   2.55310845e-01, 
              9.69154824e+00,   5.53692251e+00,   7.52714562e+00,   2.72967289e+00,   6.39324287e+00, 
              3.23569874e-01,   3.22161889e+00,   3.76332395e+00,   7.13801780e+00,   8.90556567e+00, 
              7.59909758e+00,   3.36635445e+00,   9.25850282e+00,   2.43890778e+00,   4.72449943e+00, 
              3.03533848e+00,   9.38367751e+00,   8.21895428e-01,   6.48980307e+00,   8.54736878e+00, 
              6.87120226e+00,   6.14911465e+00,   3.02261763e+00,   6.81626644e-01,   1.24753187e+01, 
              9.06875271e+00,   7.12145291e+00,  -7.53985213e-02,   2.31503370e+00,   2.05556124e+00, 
              4.59647414e+00,   1.36023679e-01,   5.39799714e+00,   7.77196197e+00,   1.10325001e+01, 
              1.87795731e+00,   1.07283066e+01,   5.78408408e+00,   6.14872575e+00,   1.44492047e+00, 
              6.03000087e+00,  -2.21128605e-03,   4.37809353e+00,   1.95731004e+00,   7.39326363e+00, 
              7.59497260e+00,   9.28224296e+00,   3.70429973e+00,   1.06068854e+01,   3.95763806e+00, 
              4.30439827e+00,   1.71141323e+00,   8.07183448e+00,  -9.52763184e-01,   6.13953395e+00, 
              9.56437283e+00,   8.44934083e+00,   6.06018423e+00,   1.71414980e+00,   2.28206424e+00, 
              1.24609904e+01,   7.76841950e+00,   5.96089492e+00,  -8.20783343e-02,   4.02546937e+00, 
              3.96436293e+00,   3.84590490e+00,   3.91943845e-01,   3.76131232e+00,   9.00637357e+00, 
              1.08511434e+01,   4.47166370e-01,   9.50723044e+00,   5.80712739e+00,   7.46304374e+00, 
              2.89360231e+00,   6.49398657e+00,   2.93916057e-01,   2.95056854e+00,   3.36237999e+00, 
              6.91985388e+00,   8.76758572e+00,   7.77391776e+00,   3.54436454e+00,   9.41438231e+00, 
              2.49451903e+00,   4.56753316e+00,   3.11844356e+00,   9.56972288e+00,   6.95766985e-01, 
              6.58096466e+00,   8.59916478e+00,   6.81211217e+00,   6.24874399e+00,   3.03502798e+00, 
              7.58445252e-01,   1.26164325e+01,   9.27774308e+00,   7.63388239e+00,  -3.62514483e-01, 
              2.56432890e+00,   2.10732850e+00,   4.59525281e+00,   1.25560378e-01,   5.46049525e+00, 
              7.65739907e+00,   1.10012651e+01,   1.87424347e+00,   1.06906095e+01,   5.75864045e+00, 
              6.09250808e+00,   1.60016340e+00,   6.09631513e+00,   9.90452755e-02,   4.35339825e+00, 
              1.91864024e+00,   7.28687631e+00,   7.63870191e+00,   9.23567173e+00,   3.74480501e+00, 