################################################################################
# Symmetry function scaling data.
################################################################################
# Col  Name     Description
################################################################################
# 1    e_index  Element index.
# 2    sf_index Symmetry function index.
# 3    sf_min   Symmetry function minimum.
# 4    sf_max   Symmetry function maximum.
# 5    sf_mean  Symmetry function mean.
# 6    sf_sigma Symmetry function sigma.
#########################################################################################################################
#        1          2                        3                        4                        5                        6
#  e_index   sf_index                   sf_min                   sf_max                  sf_mean                 sf_sigma
#########################################################################################################################
         1          1   2.6893645350609899E-03   4.0664021446647713E-01   9.0840760649196675E-02   3.2072009112832915E-02
         1          2   1.9177425916174573E-08   1.7591050002872227E-01   6.4170057027354644E-03   1.6041582560697681E-02
         1          3   2.9589486239571744E-06   3.4342951261379612E-01   9.0614229455490136E-02   2.9940147239396680E-02
         1          4   4.4968080263747796E-04   5.4945205572573041E-01   1.7764928091066348E-01   6.3611241265956117E-02
         1          5   7.2042661175058246E-07   1.5689587500236840E-01   3.4182555430613023E-03   3.1242709345233486E-03
         1          6   4.6911477641531473E-10   1.0770831997000936E-01   1.5509190689113319E-02   2.0183745624433216E-02
         1          7   5.9335597216067355E-15   1.2482584838066701E-01   2.6819385159545062E-02   2.4948651748286362E-02
         1          8   1.1729502024375043E-02   2.9273803866714659E-01   1.2546213680426194E-01   2.8193386638918936E-02
         1          9   2.1689262690051817E-03   1.6768099636163938E-01   5.5729353736487845E-02   2.0450230341021742E-02
         1         10   3.8665534962649606E-06   8.9804555571901562E-02   2.0887013901012347E-02   1.1866815512785381E-02
         1         11   4.0384556096441527E-03   1.4680705353775553E-01   6.9869426866295783E-02   1.8602494435140771E-02
         1         12   1.4632973062391422E-01   1.5489095218501721E+00   6.7102472859173967E-01   1.5203544204480446E-01
         1         13   2.6638491143963973E-02   4.1830584222120210E-01   1.8662924766799929E-01   3.7669811133836294E-02
         1         14   9.4129057049761704E-03   2.1941889304644585E-01   9.4012870046851840E-02   2.4491314954600715E-02
         1         15   5.0988414060761600E-02   3.8260487693404005E-01   1.7477186551910798E-01   3.2866981011784605E-02
         1         16   1.7731295813235792E-01   1.8543004780701664E+00   8.1296430552674204E-01   1.6420325323565388E-01
         1         17   1.7781306597103651E-02   8.2054886039785402E-01   3.6390766836398264E-01   9.3192111747991455E-02
         1         18   1.5130298579536369E-01   2.1609011977472052E+00   9.0751827189825673E-01   1.9681849105242633E-01
         1         19   1.5149974333990195E-02   1.2317857815607025E+00   4.3901654353640684E-01   1.2457956444406931E-01
         1         20   8.0158555756919389E-04   3.8605857119530795E-01   1.5948155528789207E-01   8.9708723907607521E-02
         1         21   7.6519171890859911E-02   4.4884334128075171E-01   2.2614841914839848E-01   3.3913215262202340E-02
         1         22   6.8082906507439377E-04   3.8831766458865363E-01   9.3362929985892115E-02   8.0014466670230933E-02
         1         23   1.2525884620075692E-01   8.6185920271640859E-01   4.4554500850709045E-01   7.8645775839317963E-02
         1         24   2.3352591975503079E-01   1.6213304771742414E+00   7.7158908165536100E-01   1.4258867492845664E-01
         1         25   8.1661339795578818E-03   1.1834576904503304E+00   3.7914801596458841E-01   1.2060784241502699E-01
         1         26   9.5287663788736154E-02   2.0272642570333028E+00   9.6275286751752920E-01   1.6092226859193243E-01
         1         27   8.6682341044810892E-07   4.4085170814031585E-02   1.1722291128096847E-03   1.3362727926977327E-03
         1         28   1.5681240448024234E-06   2.6018377909280362E-02   2.2945709765854012E-03   1.5569992356329455E-03
         1         29   4.1730489190468074E-08   5.3126980410629640E-03   9.4943728949343028E-05   1.1960651471803419E-04
         1         30   5.1930227658382946E-08   1.6187184670446920E-02   1.7158404726947779E-04   3.1068081719410310E-04
         1         31   5.9059569518287124E-12   1.2287949121604648E-02   1.9645071451059308E-04   3.4999146592458203E-04
         1         32   2.2587327940521831E-08   1.5818268945603110E-02   2.0577048682150000E-04   3.4024805230060246E-04
         1         33   1.1129611160629747E-11   5.9661680555222110E-03   4.9646625121317434E-05   9.6180622195965530E-05
         1         34   1.6097094399072039E-10   1.3525989666111456E-02   9.3268629340500546E-05   1.9517775229739830E-04
         1         35   0.0000000000000000E+00   3.2392992828056593E-03   7.5346080827917354E-06   4.2884008940365048E-05
         1         36   2.3580638320932556E-11   6.1999879147489898E-03   6.3925349013516043E-04   7.3514394021519883E-04
         1         37   3.0205788612816423E-05   2.3146869591039378E-02   2.2144806558818237E-03   1.1424083322065428E-03
         1         38   4.1573221269547085E-13   1.6584300352722979E-02   1.3326669060909212E-03   1.2869364929835809E-03
         1         39   9.1209216155177358E-08   1.4532497131217724E-02   3.6547702418193379E-03   9.0745045986046586E-04
         1         40   0.0000000000000000E+00   5.9786454865959513E-03   2.9110641553555616E-06   4.4972999839181780E-05
         1         41   2.5505347273361381E-09   1.6776484767029119E-02   1.9052442323296542E-03   1.5025069035912205E-03
         1         42   3.5539058738121894E-15   7.2598815323610157E-03   1.9442097766575759E-04   2.6218690232696643E-04
         1         43   5.0160872146902308E-07   1.2831176234861972E-02   3.3874253756458232E-04   3.3896349108359627E-04
         1         44   0.0000000000000000E+00   5.7398835573318286E-03   3.1958840535222825E-06   3.9912538865129296E-05
         1         45   1.5708464375135195E-11   1.5727585209199938E-03   4.0512333475284287E-05   3.7092017255502396E-05
         1         46   0.0000000000000000E+00   4.8381027774286565E-03   3.3737591706209223E-05   5.6683375619106801E-05
         1         47   3.5899589293116460E-07   5.4220603453557902E-03   2.3081264387024279E-04   2.0135871642096718E-04
         1         48   3.5928131397850799E-09   4.9308321477149891E-03   5.2743298860776838E-05   9.4350962816261305E-05
         1         49   1.2488416249952537E-12   1.5038730397356633E-03   3.3839053093649959E-05   4.2861929604030087E-05
         1         50   0.0000000000000000E+00   5.1044790866549223E-03   1.8457346114394191E-05   4.5941805507495062E-05
         1         51   0.0000000000000000E+00   7.1194258564295841E-04   9.8323655795913788E-07   8.3875239484300452E-06
         1         52   6.9754982635468690E-23   1.8958664595066107E-03   1.5281835554204847E-06   1.6828421012064064E-05
         1         53   6.8184625352699165E-07   1.2438240348973980E-02   1.7121881423366725E-03   1.6874082955722093E-03
         1         54   8.5740897203185221E-09   2.2240561040751811E-02   2.1631757594003657E-04   7.9559037146819409E-04
         1         55   0.0000000000000000E+00   7.3496318272831896E-04   1.2672607641570347E-06   1.1245674951296213E-05
         1         56   2.9545189658307608E-21   5.2729936903726099E-04   1.6874964376623624E-06   4.4592899997833222E-06
         1         57   1.0940399093015907E-16   8.4718993353525695E-04   8.1321056985598080E-06   1.3708088873208943E-05
         1         58   2.3359936009990298E-16   1.2513831819141525E-04   5.9323853639937457E-07   1.5649009187492203E-06
         1         59   4.8623718263706551E-17   1.1913740593070387E-03   2.2428952172356667E-06   1.2925008754868606E-05
         1         60   5.3613227335373151E-18   2.9394960144494918E-04   2.4479315258146949E-07   1.5278445931503059E-06
         1         61   2.0864198674013216E-12   8.5794540129857707E-03   1.5488037582358884E-03   1.4477101563547948E-03
         1         62   0.0000000000000000E+00   1.0803250232409695E-05   5.3221880614441348E-10   3.6390547541056294E-08
         1         63   2.8816124369515071E-23   7.1239857563402899E-05   6.6855590578468653E-08   2.3907389528207476E-07
         1         64   2.6966981480989256E-13   1.7258091730685853E-03   4.9555959176809582E-05   8.4405733572959121E-05
         1         65   2.5814541471513681E-16   3.4278491520342547E-03   4.5568556327318334E-06   5.0985122709190195E-05
         1         66   1.5638776433316558E-19   2.8255463575848499E-04   9.3151815111417405E-06   7.7283898605602840E-06
         1         67   2.4675008912898776E-16   3.7902743783338737E-04   7.5112790722651165E-07   5.0009318199147712E-06
         1         68   4.0025088004515852E-23   1.2439283637836002E-05   7.4303977224502422E-09   6.2485943027045934E-08
         1         69   0.0000000000000000E+00   1.4865147159699444E-04   6.9220280317647179E-09   3.6379375502267070E-07
         1         70   8.7822105894360381E-15   5.5834206672730627E-05   1.5264470744620700E-07   3.2529626887413948E-07
         1         71   6.1822043352360826E-15   5.1385357255870768E-04   7.4175173819128554E-07   2.1357204252231564E-06
         1         72   3.6646160591258964E-20   2.3137864094742916E-04   3.2460191466733587E-06   4.8834356028397001E-06
         1         73   3.0358695214910883E-17   3.2243617541054498E-04   1.3779787179395628E-07   2.0755321263218739E-06
         1         74   1.8309388159360525E-21   4.2771492772560435E-05   2.0634481904943188E-07   3.3311893593856593E-07
         1         75   3.6673232027499954E-18   5.3720732454101041E-05   1.9972101301400823E-08   3.2829280171644972E-07
         1         76   1.9030556596470591E-13   3.9596969848837969E-04   1.3039420537725587E-06   2.4540904793039749E-06
         1         77   0.0000000000000000E+00   5.1436717118196029E-05   1.4791229854882772E-09   1.8743132017572567E-07
         1         78   3.4292752736545064E-16   1.4474265920705942E-05   1.2069147925587348E-08   4.7025378089983050E-08
         1         79   1.5173318067814716E-16   1.4600359565103296E-04   3.3652278826621080E-08   5.8924306724346041E-07
         1         80   1.4969736710758808E-22   1.0376682737236587E-04   8.1559341667315243E-08   6.6809938075865139E-07
         1         81   4.7875686547851290E-18   2.0467726653732062E-04   2.8232702009204988E-08   7.8419419147521899E-07
         1         82   9.1252253986425449E-20   5.2999229705656418E-05   4.3013058630105210E-09   1.9780018147560498E-07
         1         83   0.0000000000000000E+00   3.3659734482031365E-05   1.2761649883563663E-08   2.4574826942271233E-07
         1         84   1.7699641617951196E-27   9.2727840466673615E-05   1.1047058506737389E-06   2.0590510336817997E-06
         1         85   8.2152646783821154E-24   1.2197892442739888E-06   4.6699395792321120E-10   6.8411815730286866E-09
         1         86   0.0000000000000000E+00   6.9665679872195547E-05   2.1602555672123716E-09   1.9727254587752011E-07
         1         87   3.7891306538898719E-03   3.5436414874314798E-01   4.9529691788955346E-02   1.9818709645471791E-02
         1         88   1.1218964702859812E-03   2.0992634146919362E-01   2.5109879607105253E-02   1.0454186875164593E-02
         1         89   8.6448940911270419E-03   2.6582888834953927E-01   7.1004609983903524E-02   2.0560602120412250E-02
         1         90   2.0277682077830253E-03   1.5599998175426424E-01   2.2670366467354198E-02   1.0446894126638281E-02
         1         91   1.4878704835376641E-04   4.8554343196155147E-02   7.1500856571406280E-03   3.2675544412302856E-03
         1         92   6.0634948742290461E-04   1.1610737438385199E-01   1.0773202228540120E-02   5.6189853548208176E-03
         1         93   6.5824594600387657E-07   2.3957634363478635E-02   1.3387305903149222E-03   1.3983463021509505E-03
         1         94   8.3182487181487268E-04   8.1578829667322814E-02   1.2263365706412880E-02   5.0618382918936186E-03
         1         95   5.9375030033854753E-04   1.4194993556956292E-01   1.3585046291124501E-02   7.2326230707488413E-03
         1         96   7.6148550462820522E-03   3.5341142120853131E-01   6.1090823557926360E-02   2.1307262472082731E-02
         1         97   3.1367201519197041E-07   2.4656736573942510E-02   5.4043550201888515E-04   6.7320894304448594E-04
         1         98   2.9047778924661673E-05   3.5058062017460263E-02   4.1792862191022762E-03   1.5334135163779399E-03
         1         99   3.2694762915843316E-08   2.0471414168562071E-02   2.8642340326329521E-04   4.3459961220272306E-04
         1        100   8.5353832556160251E-05   4.1868790076014288E-02   5.3452058658249773E-03   2.7335530366268245E-03
         1        101   1.6830794375250322E-05   4.3730561970239203E-02   3.8772321187501876E-03   3.0539950058223403E-03
         1        102   3.0613263411943148E-06   2.3868783330394702E-02   6.6809782978101428E-04   8.8499610254460018E-04
         1        103   1.2885921126136506E-06   2.6133752213613307E-02   6.4916667374571803E-04   1.2219639557857691E-03
         1        104   3.7168343256280441E-03   1.2272773892799968E-01   3.5382156480488654E-02   1.2129811894079620E-02
         1        105   7.1802884236723001E-04   2.5099732233775401E-01   2.1074752132833253E-02   1.2055292679304793E-02
         2          1   7.0614101871510307E-06   2.7219381168279094E-01   5.5030019143150914E-02   4.6323088610788481E-02
         2          2   2.9444390655821774E-03   3.1057152136995431E-01   7.1450791760518037E-02   2.2283015755833288E-02
         2          3   3.7930892576818571E-04   2.1716291531211313E-01   5.7784238396106899E-02   1.6787158316218999E-02
         2          4   5.3283101098460432E-06   2.2211736616402969E-01   7.4137077719983027E-02   7.2177727246978796E-02
         2          5   9.7461724746195560E-05   5.1011194856195785E-01   1.2250814746300188E-01   1.9786736143268171E-02
         2          6   1.5310341991792789E-03   4.9952380932784279E-01   1.6057258329031460E-01   3.8028903381658818E-02
         2          7   7.5461876144003798E-13   3.5648440423764763E-02   4.2620839785875017E-03   1.9824856481925183E-03
         2          8   2.4716109377440425E-14   4.1978341619927632E-02   3.4981649280975842E-03   3.9742355561278751E-03
         2          9   1.3320056834187686E-02   3.3426348056566257E-01   1.3932338434121966E-01   4.8489382395087620E-02
         2         10   9.9216084669139342E-05   1.0115230875394195E-01   1.9884161707432423E-02   1.5695414714520455E-02
         2         11   9.8126808135623106E-05   1.5604973137162387E-01   5.3110786135732516E-02   3.2664420483127649E-02
         2         12   1.2882510170620828E-02   1.9355710074295437E-01   1.0704578775373866E-01   2.1262661969119644E-02
         2         13   2.4957464741291666E-01   1.8366351080202470E+00   9.0976917090995646E-01   1.6496685847040893E-01
         2         14   5.7269628401254644E-02   6.9639545520999435E-01   3.4628386845627029E-01   7.8663970111585976E-02
         2         15   5.2984144301559781E-02   8.5520295194644780E-01   3.6891252399729385E-01   7.4270838356428642E-02
         2         16   1.0906623703574409E-07   2.0631398442788337E-01   4.7195468031693909E-02   4.8595100705315211E-02
         2         17   9.5544146451591941E-02   2.1903458435212930E+00   1.0975413588410161E+00   3.0080891211953448E-01
         2         18   6.9498552063355940E-03   9.3941520924639699E-01   3.1917484741480723E-01   1.0238150350658833E-01
         2         19   8.1693421292887620E-04   6.9658878282007108E-01   2.2261724675628594E-01   1.1120873894546816E-01
         2         20   5.2049146124022606E-03   1.0412799410241578E+00   4.6008323410720248E-01   1.8957827610689518E-01
         2         21   1.9201767889474500E-01   8.3356328600202290E-01   4.5364136666311072E-01   7.6258424369334804E-02
         2         22   1.4636106880915081E-01   7.6983048982585955E-01   4.4509935732743533E-01   7.7285835985797802E-02
         2         23   2.4540432323491498E-01   1.6564143091357073E+00   9.0154142450978936E-01   1.5785097791900182E-01
         2         24   2.7294074405298746E-01   1.4990327725785677E+00   7.9678983809849957E-01   1.6884454236701837E-01
         2         25   1.5193306328416293E-02   1.1808406627169648E+00   5.4566430323253268E-01   1.6895234545147372E-01
         2         26   3.8654384066903328E-06   2.7567880390394511E-02   2.3003762146153084E-03   1.4727708775274895E-03
         2         27   1.9112751010860395E-09   5.0847417328481557E-03   2.3879626459156119E-04   1.3233146511716279E-04
         2         28   1.5655038674453836E-05   5.1838643167014309E-02   5.4088135686575821E-03   4.0044506939584251E-03
         2         29   3.2755059859649449E-09   1.6807848202986812E-02   1.7386368644903508E-03   1.8860081048444140E-03
         2         30   1.8557362931153536E-11   9.3011994565201459E-03   1.1598595233553129E-03   1.2437798456968049E-03
         2         31   1.0886859731367683E-13   2.4448906499003435E-03   2.2200918976351871E-04   2.4510131838120883E-04
         2         32   1.2581380132607552E-11   5.0458944117711037E-03   7.9931125321407149E-04   8.4565993712459094E-04
         2         33   5.5458469347361870E-10   1.8376273481387284E-03   3.4960605770106830E-05   2.6786329377953867E-05
         2         34   5.8158991550479244E-06   3.8297857001758313E-02   2.8410700722994661E-03   1.8982627830622149E-03
         2         35   0.0000000000000000E+00   8.1986230980240007E-03   2.6271018141056921E-05   1.8868073508575606E-04
         2         36   4.9225887083342608E-10   7.7044331168908920E-03   7.3858384649135066E-04   7.7552831007568501E-04
         2         37   2.9364336163563797E-11   1.8062260151388650E-03   8.5095790441073554E-05   6.0117647861459189E-05
         2         38   1.5431430112162824E-13   3.2321875174705808E-03   7.7952323333555597E-05   7.1745862474009486E-05
         2         39   3.7874545164520073E-09   6.1046168529752523E-03   6.8276099362958001E-04   4.3543817838037017E-04
         2         40   3.5476264337506268E-09   4.3176750917351108E-03   8.5697197058176100E-04   8.8934632057967658E-04
         2         41   0.0000000000000000E+00   1.4257994223915919E-03   1.0152281097470977E-06   2.4689581292875841E-05
         2         42   7.3397729430155801E-07   1.7667543467739865E-02   2.6554199890731311E-03   2.5451483006984333E-03
         2         43   9.6620781985880350E-08   2.6811224056608147E-02   1.6619329487618797E-03   1.6662866164054992E-03
         2         44   1.5296530133371759E-07   1.1705942450047063E-02   1.6459983876305070E-03   9.4064234225066162E-04
         2         45   0.0000000000000000E+00   3.9800411999800752E-03   4.5153181977745113E-06   6.0878730041316599E-05
         2         46   1.4039671263954120E-11   2.1938892775467704E-03   3.6510114760718288E-04   3.8768113987295189E-04
         2         47   8.4202961836779377E-13   2.4963734141114457E-03   2.3331697944949429E-04   2.5655423425491417E-04
         2         48   0.0000000000000000E+00   4.6727797294430465E-04   3.9308388044584084E-07   7.4380373907594862E-06
         2         49   3.5890815076731218E-13   2.1607682619522932E-03   2.2366538430262657E-04   2.4406985195455104E-04
         2         50   1.4737402168188519E-07   8.0004385483749586E-03   4.1406466302843441E-04   5.4975851508851537E-04
         2         51   0.0000000000000000E+00   8.3067106973204311E-05   8.4532978324374489E-08   1.0124957186674744E-06
         2         52   2.5224560252544892E-12   4.6898711974967239E-04   4.5083815972114992E-05   4.4072455420419022E-05
         2         53   1.4953172209809005E-11   3.9032456184302320E-03   5.4520596719987260E-04   5.8551636004373431E-04
         2         54   1.1871335454461852E-15   4.8169994020739037E-05   3.5590574201069731E-07   7.4365213408111821E-07
         2         55   5.2001571865567910E-14   1.9041757061449035E-03   1.3236572287928720E-04   1.6054255604920238E-04
         2         56   1.2482734798438501E-15   5.7034230351806006E-05   6.4511283826186787E-08   4.7799479336205055E-07
         2         57   1.6303643749468843E-10   6.7877323342315794E-03   4.1890190655873956E-05   6.6166718357858986E-05
         2         58   3.3948185154083656E-16   1.1534413987470436E-04   3.5937694059412184E-06   4.5271898749435930E-06
         2         59   5.3354038013499145E-15   1.7012256538746483E-04   3.2496285537586356E-07   1.8803470067785394E-06
         2         60   5.0591558987864713E-21   2.0623521684499604E-05   1.8028424275793714E-06   2.1455084922767777E-06
         2         61   0.0000000000000000E+00   5.1168752571346090E-05   9.6896932329810551E-09   4.5251614604318590E-07
         2         62   8.6994170878166250E-21   2.1950597872986192E-06   1.2676831060894639E-09   1.5792099843475292E-08
         2         63   3.2846775905379089E-20   8.3808050372218394E-06   5.1459516472084563E-07   6.4201487961253106E-07
         2         64   4.2265940620960161E-17   4.9262890230223396E-04   2.6936107003030471E-05   3.7193889004128567E-05
         2         65   3.4101019951749391E-20   9.3994376634375619E-05   4.2127892280122253E-06   5.4293122096204114E-06
         2         66   3.2651797854800209E-19   9.9818878144560681E-06   3.8375951359446717E-07   4.9183009223799275E-07
         2         67   9.8738659876884841E-22   1.7229627520653127E-05   1.4058084405522946E-06   1.6746620734795384E-06
         2         68   0.0000000000000000E+00   2.2637668204945649E-06   2.8698174078103176E-10   1.4404229582104980E-08
         2         69   2.8775006605361471E-20   2.8012723486161456E-06   1.1756117769376978E-07   1.5773945961715374E-07
         2         70   1.1128763742074118E-20   2.7031989894981437E-05   8.9260949922996360E-07   1.2539112331739858E-06
         2         71   4.1525013797198663E-24   1.7291564882755201E-06   2.7634336350779044E-08   4.9435565148943541E-08
         2         72   1.3513214814177707E-21   6.2808055737627801E-06   2.0513907807210496E-07   2.7275765437150391E-07
         2         73   0.0000000000000000E+00   1.4512470602485248E-06   5.2416324780695361E-10   1.6956423428344918E-08
         2         74   1.0373966316128180E-22   1.6914987981088892E-05   8.6087163666156620E-07   1.0464278762439802E-06
         2         75   1.1057468166851474E-15   1.5527302778863561E-03   2.0546635512633311E-06   7.0497354709088576E-06
         2         76   2.7349286801443618E-15   1.4801225051027975E-04   4.0209904535854693E-06   5.6827545536701672E-06
         2         77   1.7574215679381356E-14   3.7656975822450878E-04   1.2769888131692247E-06   6.5262646373445629E-06
         2         78   0.0000000000000000E+00   2.9127468379592389E-05   5.0575619122179761E-09   2.1878509299967527E-07
         2         79   5.9729044746903568E-22   8.2863211035308209E-06   9.6049106716876888E-08   1.7983786922913647E-07
         2         80   3.9968643200351504E-17   1.3701374081655702E-05   5.7000718004524209E-07   7.1976710730496106E-07
         2         81   2.2554016991079645E-20   9.5674361969867092E-07   6.6701848659474290E-09   1.2310136777655231E-08
         2         82   2.6141074226801210E-03   3.6181155297564649E-01   8.2827483859517215E-02   4.2493646569675234E-02
         2         83   1.2690856245238776E-03   1.3887840098475629E-01   1.9625007249990636E-02   8.5746936864723750E-03
         2         84   6.2998926927159578E-06   2.8667387300487939E-02   1.4521879755585508E-03   1.3676295314883631E-03
         2         85   3.0304898591222182E-06   4.5266329107281525E-02   1.2051954620299742E-03   1.1718177608573670E-03
         2         86   3.5373835598234494E-05   5.8245511994833431E-02   1.4183901023249464E-02   1.1221251005645068E-02
         2         87   4.7672556410718058E-05   5.5371099065653379E-02   1.0264956391779701E-02   8.5955584888369272E-03
         2         88   1.4296036437861074E-02   4.9664254787787238E-01   1.3203599946937816E-01   4.2455447351104979E-02
         2         89   8.3929145686104656E-03   3.1135835137913831E-01   9.5347629552164082E-02   2.7295271480155668E-02
         2         90   1.1541246307643679E-02   5.1052577139809141E-01   1.2438580560856653E-01   4.1322195602923328E-02
         2         91   4.8192459882983370E-04   4.0574168756802823E-02   7.7702136855132952E-03   2.0960693895094315E-03
         2         92   5.2620797771478598E-04   5.2802883609326480E-02   1.0180409709170847E-02   3.4302814640692564E-03
         2         93   1.1802586543749128E-04   4.3563207750808824E-02   6.2563732168273243E-03   2.8644368674910635E-03
         2         94   3.8382319351592032E-05   3.9514643510445209E-02   8.4979701687549983E-03   6.7679608518060970E-03
         2         95   7.1801383793673279E-04   1.2530535557199776E-01   2.4967690381582804E-02   1.2978880676502264E-02
         2         96   2.3379974131234610E-07   3.9183233066706270E-02   7.3798488374963165E-04   1.0956647958929309E-03
         3          1   0.0000000000000000E+00   9.7185577537680271E-02   2.5320004286403771E-04   1.4355569611597758E-03
         3          2   3.9580299158377394E-02   3.7856872434020716E-01   1.1556847679221381E-01   2.3849423339754726E-02
         3          3   4.1112126618812584E-08   4.8858830657992191E-03   1.1084157077013118E-04   1.2285030205789143E-04
         3          4   9.0013917925734366E-04   5.0503417598173850E-01   1.0734091168220214E-01   3.4539205915496592E-02
         3          5   3.5081072310281425E-05   2.5950685608839352E-01   1.3409692579772531E-01   2.6883625632491151E-02
         3          6   7.5885882918575101E-08   4.1972909357920959E-02   6.9963298561951728E-03   2.7825491023716750E-03
         3          7   7.5643678513951746E-03   3.2482528818859896E-01   1.0443506950506172E-01   3.3047074454084009E-02
         3          8   3.8221299920754882E-03   1.4384287615139776E-01   3.9768323414864887E-02   1.5156359625623153E-02
         3          9   0.0000000000000000E+00   7.1091978487241553E-02   1.1539318856045404E-02   8.4311335260344195E-03
         3         10   1.5440756778119755E-01   8.8423335463662955E-01   4.7006435023425897E-01   8.8051490594726139E-02
         3         11   2.1899007906004252E-02   1.8503928355267782E-01   9.6468125514504510E-02   2.3611949672585029E-02
         3         12   6.6358317353926513E-02   3.8967676634778486E-01   1.5995766492062971E-01   2.5800222643314236E-02
         3         13   2.1743979222766616E-01   1.6775083492287803E+00   7.8315697123768901E-01   1.7006240044795093E-01
         3         14   1.4830846455784924E-01   7.0550206065647736E-01   3.3309317779709580E-01   5.6495940063125735E-02
         3         15   1.0530796145876933E-01   2.1853959159198699E+00   8.1760207577781696E-01   2.1799144542725873E-01
         3         16   6.6814021062821374E-02   1.0045812194659860E+00   4.4523449351257188E-01   1.3007488436059136E-01
         3         17   2.4094098752410684E-01   9.7194521613764906E-01   6.0044202942720148E-01   8.6099408231766275E-02
         3         18   2.2663732395117098E+00   7.0281648459750228E+00   4.0345970333056664E+00   5.7443474825347729E-01
         3         19   1.9458480298575428E-01   8.9543211018109559E-01   4.0753698191562510E-01   6.3449695148785568E-02
         3         20   1.6057677224941511E-01   7.4338675139826182E-01   4.1507023074423210E-01   8.2267788591384394E-02
         3         21   1.6484073181835548E-01   8.5483233264783554E-01   5.0058328689514675E-01   8.5827218986619991E-02
         3         22   2.5937810216545076E-01   2.0402760797658468E+00   1.0913286064650647E+00   2.4769122732659074E-01
         3         23   2.0800767377330717E-02   8.6893872452081022E-01   3.4842963842387042E-01   1.0159302422625732E-01
         3         24   2.6940798715938542E-04   2.8600959491423574E-02   1.3944091522771993E-02   2.2317048409823386E-03
         3         25   0.0000000000000000E+00   1.1337717204679448E-03   8.1146713362655116E-06   4.7803522407539546E-05
         3         26   0.0000000000000000E+00   3.7113637534865883E-04   2.5291502591367644E-06   1.3800480916534738E-05
         3         27   1.1233009495795669E-08   1.6423925308700288E-03   6.7963305541638634E-05   4.7175989938452333E-05
         3         28   1.2293986015281461E-03   3.5725848601935756E-02   1.3701010019793982E-02   2.2910460522015323E-03
         3         29   0.0000000000000000E+00   1.8711591303535017E-03   5.1478918743420430E-05   5.2695881865058763E-05
         3         30   2.9071159358183409E-06   2.0540685372160972E-02   8.9408433692527572E-03   2.3418671459053283E-03
         3         31   1.7041488468385865E-05   1.0958403752853190E-02   4.0365597440904294E-03   9.0174870628047168E-04
         3         32   9.4118840771099961E-11   2.8653773662565465E-03   6.2598137565366836E-06   8.8218644769011350E-05
         3         33   8.2692458245628771E-10   4.6605522206018404E-04   1.4219164617170251E-05   1.3503153814236981E-05
         3         34   0.0000000000000000E+00   3.7980877200346241E-05   3.0238484991564725E-08   5.7470536942568760E-07
         3         35   0.0000000000000000E+00   6.5919126594797290E-04   8.8845364628657580E-06   1.4836948840717170E-05
         3         36   0.0000000000000000E+00   1.0740576664135351E-02   2.1873706602116762E-05   1.3903746909961018E-04