24
Lattice="5.5062983558 0.0 0.0 0.0 6.509099354340001 0.0 -1.478863071915956 0.0 6.09844831102248" Properties=species:S:1:pos:R:3:CS:R:1:CSerr:R:1:CSens:R:16:center_atoms_mask:L:1 #=T CELL(abcABC):=T 10.40540=T 12.30042=T 11.85841=T 90.00000=T 103.63100=T Step:=T 57530=T Bead:=T 0=T positionsatomic_unit=T cellatomic_unit=T pbc="T T T"
C        1.18257301       2.50748405       0.11946753      26.17879648       0.34857296      26.18146863      26.68185722      25.93964225      26.91120890      25.98624946      26.55678729      26.46740286      25.93238841      25.88183970      26.35016322      26.29730023      26.02765362      26.26680733      25.79673647      25.50402369      26.07921443  T
C        2.84829520       4.02949235       5.96250185      32.56430680       0.53343379      32.11287872      33.17753322      32.87707570      32.99961133      32.58884830      33.26818165      32.57662089      32.64684838      32.10278576      32.14545091      31.84929307      33.35671631      32.13927949      33.19368614      32.46328055      31.53081838  T
C        0.82787096       5.74929643       3.03767707      35.48231169       0.58360060      35.76362430      34.95202034      35.99525916      35.76677497      36.90251510      35.43737682      35.36844815      36.13908337      35.81404870      34.71998306      35.42135827      34.83141180      34.77183691      35.33608601      34.73489439      35.76226574  T
C        3.19327627       0.70627667       3.18358175      42.82405799       0.36777820      42.79149245      43.07902705      42.59278955      42.89392574      42.77242016      43.03840852      43.21056232      42.44889975      42.94294687      42.11668704      42.10686855      43.18062952      43.37276100      43.01618478      43.13209335      42.48923116  T
C        0.15395241       2.43146777       1.12670250      33.91772878       0.36088976      34.19860414      34.04300468      34.33730696      34.06845603      34.27497106      33.07863187      33.51309400      34.12795560      34.23025954      33.78547159      33.71547280      33.86500660      34.02869601      34.15364528      33.20712940      34.05595494  T
C        3.81119096       3.97992434       4.87742441      34.10712722       0.37370125      34.12298681      33.88612742      33.35401472      33.90074771      34.60736098      33.95499571      33.55291863      34.19186255      34.84564357      34.13625961      34.53527678      34.12150222      34.32536211      34.16481207      34.31296449      33.70120019  T
C        1.78221522       5.72934646       1.97970407      41.19485722       0.74986521      41.08898203      40.86731942      40.54195059      41.67202034      42.29692540      41.58782686      40.95125107      40.74893748      41.57078007      40.53180382      43.09483879      40.72122043      41.33260352      41.66948458      40.07870802      40.36306309  T
C        2.27746139       0.88221214       4.11704469      42.10015148       0.34111600      42.28366505      41.65226596      42.69488874      42.49132249      41.99344666      41.83584622      42.33433259      42.51043085      42.05266735      41.99011065      41.64697784      42.09686711      41.86498780      41.58423251      42.60663193      41.96374993  T
C       -0.54663984       3.24866523       5.05878924      43.10209312       0.47501862      43.65672294      44.02815341      42.16508382      43.09262503      42.69240039      42.88767586      43.43249176      42.79966484      42.43998632      43.68048618      43.36012946      43.07132780      42.83641464      42.77466236      43.31599028      43.39967481  T
C        4.50109489       3.21022581       0.90822119      38.22565381       0.47514346      38.50844249      38.49164660      37.89215120      37.56751770      38.43219468      39.04632176      38.98593865      38.35027987      38.16766186      37.97763314      37.36165704      37.58858968      37.93772250      38.58100007      38.62957252      38.09213112  T
C        1.09037450       0.04211191       4.07503332      34.39154618       0.43371699      34.45972914      34.36426573      34.74461333      33.71818049      34.16985958      35.01368730      34.58657867      34.18212350      34.32978404      35.28758660      33.75196676      34.35758777      33.81478335      34.07816567      34.88528125      34.52054566  T
C        3.00245505       6.38668272       2.09173614      46.69340607       0.70144522      47.27505553      45.50800327      47.13537007      47.11619273      45.68711402      47.23032045      46.36299892      46.91398758      46.77928450      45.90840536      45.94590616      46.68796389      47.50069988      47.25019035      47.91372603      45.87927831  T
H        2.16223310       1.93371859       0.30745184      23.01239061       0.03776193      23.01927668      22.97168242      23.07186666      23.03254651      22.99540618      23.07374863      23.02695921      23.01415782      23.03064277      23.03032822      23.00247281      23.02130935      23.02562312      22.91069793      22.97765826      22.99387324  F
H        1.91085815       4.68441239       5.96117891      23.38412277       0.06329154      23.36950123      23.46809998      23.27610298      23.42179305      23.43497641      23.39315596      23.52746188      23.34677763      23.34499463      23.36071805      23.40025925      23.29380561      23.35339738      23.45212476      23.37290168      23.32989387  F
H       -0.04715888       5.07636850       3.17696175      23.07428543       0.06417507      23.09620388      23.00292407      23.00302799      23.03612162      23.02848375      22.94523268      23.12177382      23.10499218      23.13834383      23.09483485      23.05140705      23.05900495      23.19921002      23.13288597      23.14701166      23.02710860  F
H        4.13247549       1.40382191       3.29868833      23.26409279       0.04557683      23.30179413      23.24030621      23.29729988      23.24574336      23.19596178      23.28404668      23.27662631      23.22145962      23.28650193      23.24264122      23.23178907      23.37519915      23.26254964      23.18280277      23.30540732      23.27535553  F
H        0.34117100       1.79041746       1.96670220      25.25643780       0.04633654      25.18327513      25.36134540      25.25672790      25.32806661      25.25723840      25.23455682      25.20086165      25.24229345      25.23531256      25.32877175      25.23770914      25.26501154      25.23074548      25.22970517      25.22725544      25.28412841  F
H        3.69968808       4.64444894       3.96266788      24.69159426       0.04321651      24.75053811      24.74199495      24.66464120      24.68540561      24.68917495      24.69514165      24.73679250      24.63055118      24.75265986      24.69737841      24.61894928      24.62726050      24.70441253      24.64790324      24.68602244      24.73668167  F
H        1.53411058       5.27530201       1.18674292      26.98692819       0.05945360      26.92436098      26.89616646      27.00064542      26.89829917      26.95229926      27.06732471      26.95845582      27.00835093      27.07817201      27.01548957      27.05621944      27.00256942      26.93752960      27.04999160      27.02908488      26.91589170  F
H        2.46381107       1.46459260       5.05844528      25.43124809       0.04596826      25.36374419      25.42111419      25.43891518      25.45082609      25.38486952      25.43572012      25.40341587      25.40556969      25.52069989      25.44231045      25.36386266      25.45442991      25.41880832      25.39878542      25.52725932      25.46963863  F
H        0.04151288       3.17257487       4.17062915      24.02949336       0.06115771      23.92533158      24.01135307      24.09798017      24.03615093      23.97882909      24.03713453      24.09336804      24.02809219      23.99361018      24.08673859      24.08731784      24.04634614      24.10634146      24.08295160      23.94659420      23.91375419  F
H        3.73966740       3.28592458       1.80099571      23.06308171       0.05165763      22.97526967      23.02311786      23.06757059      23.12758982      23.04315902      23.05930693      23.14979819      23.11977463      23.12972946      22.99537740      23.04307612      23.07118070      23.08435345      23.01205524      23.10568473      23.00226353  F
H        0.33675925       0.13450621       4.84005922      24.10104363       0.04784241      24.09096342      24.09065830      24.11396892      24.09764979      24.09810526      24.14688344      24.22352590      24.10832015      24.12688698      24.04941111      24.04714823      24.00595516      24.12305250      24.05285005      24.13097022      24.11034863  F
H        3.55542914       6.27505918       1.15351590      23.55826503       0.05913008      23.50856082      23.50488679      23.65774191      23.52703300      23.50464784      23.55265908      23.52410343      23.54339437      23.61470534      23.68836720      23.54186730      23.62286752      23.57983543      23.49413121      23.58431019      23.48312901  F
24
Lattice="5.5062983558 0.0 0.0 0.0 6.509099354340001 0.0 -1.478863071915956 0.0 6.09844831102248" Properties=species:S:1:pos:R:3:CS:R:1:CSerr:R:1:CSens:R:16:center_atoms_mask:L:1 #=T CELL(abcABC):=T 10.40540=T 12.30042=T 11.85841=T 90.00000=T 103.63100=T Step:=T 72470=T Bead:=T 0=T positionsatomic_unit=T cellatomic_unit=T pbc="T T T"
C        1.13151272       2.48096170       0.12358929      21.77911985       0.55199834      21.84154353      21.89430545      22.64271762      20.61393248      21.72803196      20.66149675      22.77326921      21.77181440      21.89189612      22.16737148      21.45740491      21.41720596      21.76967611      21.88039357      22.09488401      21.85997399  T
C        2.92449669       4.03635049       6.01610748      47.70725763       0.28878833      47.74380833      47.64354300      47.81734953      47.69353377      47.91351052      47.40319012      47.42973560      47.23867286      47.46036140      48.53714801      47.45314783      47.73294910      47.87814411      47.68347487      47.88338316      47.80416988  T
C        0.79778195       5.75802785       3.02601930      45.49963491       0.60682511      45.66127356      45.49322706      45.63824549      46.03956807      46.40164812      46.18807059      45.23723020      45.86122717      44.75387205      45.18222683      44.81129508      44.30128543      45.73548796      45.79557391      44.62471555      46.26921152  T
C        3.03414216       0.70571574       3.17130484      33.09815512       0.49771888      33.22827749      33.51525757      33.31941812      33.18896354      32.65848856      33.28981087      32.87649877      33.15105951      32.04400126      32.71820817      33.67755364      33.22718704      32.74082439      34.23148106      32.46963496      33.23381703  T
C        0.22790172       2.50537263       1.14029706      52.98170166       0.77788574      51.52368335      53.27267654      52.81488369      54.52438392      53.69061538      52.95872418      52.61474052      53.32032619      53.33450844      53.51584734      51.76764254      53.38890723      53.49887699      52.75461427      51.59595830      53.13083761  T
C        3.78506020       3.98758153       4.96083329      33.95131353       0.61312543      33.30216607      33.04112656      34.39343261      33.55583739      34.82626399      33.99105284      33.59283867      34.28670102      34.20148655      34.22809531      33.45035926      32.77470445      33.63277020      34.53864183      34.86799433      34.53754538  T
C        1.75883618       5.68272597       2.00386100      33.84352026       0.43604525      32.94342550      34.47707882      33.86410998      33.58616176      33.87309953      33.81246062      33.63989990      34.15858428      33.82244262      33.72778936      33.69709282      34.51418758      32.94888352      33.94549648      34.30056134      34.18505006  T
C        2.21013420       0.78865894       4.24550769      37.79181233       0.41014309      37.70526506      38.49713264      37.92836387      37.97633574      37.47688351      37.62362974      38.14823487      37.16970455      37.77359007      38.50222414      38.32098570      37.50416971      37.76308545      37.37972166      37.78147843      37.11819214  T
C       -0.53481274       3.20809852       4.97163908      18.40582826       0.80661037      18.33218563      18.55720894      18.94129715      17.18374617      19.66063997      18.80683905      17.90831108      17.15986882      17.59398153      18.86678421      19.68127298      18.75325663      19.16217579      18.81130333      17.21978116      17.85459973  T
C        4.61765142       3.21861327       1.00537280      42.09924683       0.64468372      40.83946345      42.92351909      43.12133883      41.22351884      42.46362356      42.23373998      42.36874267      41.71606725      42.68627446      42.57603290      41.68949342      42.17023341      41.08196462      42.16207072      41.71374814      42.61811795  T
C        0.99422833       6.45738818       4.10574147      45.81401051       0.50071586      46.46946896      46.23276704      45.44223880      45.36628315      45.45123008      46.78333690      46.09686559      45.80561135      45.07737259      46.16113946      46.00738671      45.88776801      44.94553109      46.23986839      45.76538096      45.29191905  T
C        2.87769628       6.45650292       2.01563519      40.15846725       0.53831971      39.34441757      40.07057015      41.43107418      40.13167985      40.55854073      39.82706095      40.30767969      40.02121132      40.58939291      39.12303056      40.07430638      39.96322590      39.84037670      40.35266509      39.99027373      40.90997031  T
H        2.22383459       2.11468125       0.04459660      22.11872173       0.08226449      22.08063446      22.16420383      22.06768691      22.13502487      21.96276621      22.19546665      22.00847438      22.27166786      22.03056490      22.11489006      22.18030099      22.24157326      22.14554823      22.05709150      22.07221539      22.17143820  F
H        1.91459943       4.47179436       5.86269907      24.15013146       0.05787153      24.17340534      24.04689782      24.16990208      24.20171975      24.10913947      24.28711466      24.16233722      24.10981219      24.13426630      24.09109675      24.15841294      24.20522344      24.14913811      24.11533979      24.07709715      24.21120028  F
H       -0.13145392       5.15291925       2.79314438      23.45293116       0.06068865      23.50153713      23.38343152      23.39129726      23.50078994      23.36816212      23.58419098      23.40931170      23.38288495      23.50439043      23.41649599      23.45666775      23.51329800      23.44975913      23.44459969      23.52538142      23.41470054  F
H        3.89858455       1.38838582       3.15238147      23.95818119       0.05294077      23.90140839      23.99715982      23.87880724      24.02041396      23.95703582      23.95649550      24.02100392      23.93150216      23.91830873      23.83992322      23.97320209      23.97154405      24.02097964      23.98808201      24.02053371      23.93449880  F
H        0.53264311       1.83600077       1.97829117      25.50688525       0.06261034      25.48787189      25.63166417      25.37242666      25.51144757      25.52537948      25.51087774      25.54349178      25.50523682      25.56855436      25.50819571      25.47274659      25.60762407      25.41331645      25.45202689      25.49888288      25.50042095  F
H        3.80239604       4.81500269       4.13167643      24.13742917       0.04547836      24.09963454      24.16832450      24.16467984      24.16239083      24.04394798      24.12428391      24.17890764      24.18243206      24.09459165      24.05473570      24.18097324      24.20386373      24.12530165      24.12145463      24.12289665      24.17044821  F
H        1.48634707       5.25456357       0.90011420      24.60162064       0.07974636      24.49895958      24.52640690      24.67358031      24.56941874      24.51313137      24.59222234      24.57401460      24.61765946      24.74147266      24.60319792      24.60879272      24.58208349      24.68158678      24.51167326      24.78348332      24.54824680  F
H        2.59784102       1.33866435       5.12434898      25.17170646       0.05352071      25.17739756      25.13192067      25.13123570      25.27217470      25.21278461      25.12708111      25.20015669      25.23897861      25.20393503      25.24113586      25.10351762      25.19444106      25.07552703      25.13478643      25.12894146      25.17328924  F
H        0.15946855       3.08843573       4.13320575      23.20516713       0.04833611      23.17528304      23.22897982      23.23368704      23.14318492      23.24554525      23.23018900      23.24137572      23.18738643      23.14425758      23.15091059      23.30553730      23.22909172      23.20575751      23.11211299      23.20650431      23.24287084  F
H        3.94421019       3.27318200       2.04789911      22.50029623       0.06262847      22.47294910      22.45384441      22.37924116      22.50457330      22.46358213      22.50286777      22.54080262      22.48483968      22.49008276      22.60911703      22.48739293      22.52388864      22.55036367      22.55677579      22.38393219      22.60048644  F
H        0.33507541       6.43378688       4.91983265      24.71197629       0.04368939      24.73635749      24.63623840      24.73665409      24.70609187      24.68655103      24.72210890      24.70917973      24.80134645      24.73658905      24.75518890      24.75544731      24.63927427      24.71372163      24.64030666      24.70645856      24.71010630  F
H        3.75451611       6.26123338       1.38328985      23.52246584       0.04254019      23.44400360      23.50951437      23.52568573      23.51396905      23.54715602      23.52021243      23.52312702      23.57650269      23.56430601      23.59357682      23.55733599      23.50553689      23.43848428      23.55716513      23.47530253      23.50757482  F
24
Lattice="5.5062983558 0.0 0.0 0.0 6.509099354340001 0.0 -1.478863071915956 0.0 6.09844831102248" Properties=species:S:1:pos:R:3:CS:R:1:CSerr:R:1:CSens:R:16:center_atoms_mask:L:1 #=T CELL(abcABC):=T 10.40540=T 12.30042=T 11.85841=T 90.00000=T 103.63100=T Step:=T 56770=T Bead:=T 0=T positionsatomic_unit=T cellatomic_unit=T pbc="T T T"
C        1.00228241       2.40082313       0.22847746      36.51703055       0.28531904      36.71928943      36.29498676      36.34506457      36.54289564      36.84583144      36.30533447      36.25464532      37.20631390      36.05702837      36.24280094      36.78275625      36.46501753      36.56487717      36.27652302      36.61827117      36.75085284  T
C        2.92725370       4.07944137       6.03494618      48.09485553       0.56121519      48.73290712      47.41634389      48.42095190      46.98840026      49.25282068      48.83294871      47.96485867      47.79002568      47.83057190      47.78943095      48.05850568      48.27083868      47.85564355      48.32052235      48.50778670      47.48513171  T
C        0.92231318       5.77305648       2.84588216      25.46428222       0.54955941      24.69425568      25.79478988      25.11300594      24.94415025      24.79185095      25.99890042      26.06425709      25.56745978      25.94572567      24.52342579      26.20290775      25.19289994      26.07300433      26.07912159      25.33263842      25.11012196  T
C        3.17665482       0.80127452       3.21410997      24.99269009       0.63476527      25.25244550      24.64781949      25.42999303      25.60302166      23.81678869      24.49256564      24.69395751      24.41143623      25.02771184      24.98075732      25.59403055      24.06089536      26.14562000      24.58146809      25.22924057      25.91528996  T
C        0.05300343       2.42692214       1.20178213      44.15601081       0.45650810      44.33529880      44.63604915      44.43867672      44.49264057      44.72026901      44.32868905      43.84059658      43.96651670      43.68829705      44.50969425      43.70849999      44.47135729      43.56063708      43.08894337      44.05572297      44.65428441  T
C        3.88553504       4.12050021       5.06911878      45.63297785       0.35658580      45.44314096      45.92797691      45.52016801      46.15362143      45.14842359      45.77694168      45.72940872      45.86057887      45.45554893      45.53580530      46.27996945      45.34543837      45.17072381      45.00037470      45.99708039      45.78244445  T
C        1.90888961       5.70161759       1.86060221      42.61229661       0.46358885      43.25815175      42.82714238      43.10483499      42.56021376      42.71573233      43.06156309      41.65241462      42.34050978      42.78259186      42.10368209      41.73746695      43.08351660      42.63828343      42.24499147      42.89439647      42.79125413  T
C        2.25337854       0.78518754       4.21194729      38.69854009       0.35833611      39.09327210      38.58018108      38.22871593      39.14489561      38.49527697      39.05484891      37.99460263      38.36096609      39.13245574      38.99763613      38.80244964      38.22349236      38.93310945      38.86764715      38.43273156      38.83436008  T
C       -0.55304288       3.24974475       5.17076310      34.69995579       0.37322810      34.81210460      34.22708816      35.44870639      34.80548182      34.18321201      34.50038000      34.47221468      34.69166886      35.24919097      34.56732883      34.73914737      34.04734236      34.72535655      35.07754633      34.56146190      35.09106188  T
C        4.44148840       3.27003340       1.00817744      45.43668872       0.50556669      44.99678997      45.05199156      45.90453002      45.70574015      45.43692313      46.07613931      45.79221971      46.14391531      45.30502183      45.84395711      45.53643221      45.65927205      45.46348290      44.29471740      45.25643504      44.51945184  T
C        1.09580386       6.45310184       4.07145609      38.91492582       0.63531290      38.62379384      38.26177342      39.59716235      38.83177464      39.66350170      39.42014969      38.36686613      38.74240454      38.95941377      38.34780611      39.35036168      39.72731901      38.08410321      40.16797026      38.28724836      38.20716435  T
C        2.90620833       0.09047763       1.93440123      30.25653933       0.58272242      29.37642515      30.19812006      29.89563796      30.74516450      29.83953667      29.27644079      30.97870890      29.85311933      30.00818886      30.99884467      30.29186886      30.57571021      30.73068740      30.74225438      29.49463577      31.09928582  T
H        1.89742763       1.82642266       0.33596971      24.17514554       0.03547120      24.18956404      24.15903696      24.17262408      24.16481210      24.13991371      24.20799614      24.14854874      24.23863555      24.16600690      24.11892235      24.17204239      24.11603526      24.16530972      24.22535425      24.22956934      24.18795704  F
H        2.11974548       4.76383127       5.91381756      24.59146019       0.04890359      24.61136186      24.63075744      24.56435187      24.51941623      24.59133743      24.61560014      24.63921842      24.60712318      24.66205156      24.51843821      24.56522406      24.55239477      24.53984080      24.62045701      24.68478532      24.54100466  F
H       -0.16737128       5.28710795       2.61635163      22.72506739       0.05789501      22.78606157      22.70877202      22.63608167      22.83753115      22.73054910      22.83018885      22.70564373      22.78473766      22.65845184      22.71474056      22.69971077      22.72269834      22.67792005      22.69991691      22.65341229      22.75466169  F
H        4.18552019       1.25927192       3.16326135      22.87783824       0.06044338      22.84483537      22.94225376      22.85104454      22.85653769      22.92438625      22.88160984      22.86693271      22.86309866      22.83065700      23.00076630      22.82480800      22.86683153      22.84950733      22.80063183      22.82377827      23.01773272  F
H       -0.01479918       1.85068543       2.07631063      24.90008482       0.04925896      24.85200529      24.86228830      24.88138073      24.91095950      24.89327846      24.86351385      24.94352378      24.93528921      25.03695067      24.85944395      24.85893625      24.94417794      24.94730534      24.84198458      24.88113077      24.88918854  F
H        3.86309794       4.78834275       4.20136375      25.26910655       0.05345059      25.22797268      25.23402057      25.40200665      25.28966192      25.24911384      25.28812963      25.19006379      25.24940147      25.23579768      25.28135027      25.30185661      25.34141848      25.26503516      25.26856513      25.17698022      25.30433069  F
H        1.75034818       4.94677305       1.05185041      24.82545055       0.05158440      24.82556450      24.76308148      24.89778918      24.76681254      24.74830773      24.79105811      24.78495013      24.82064680      24.91214453      24.81117148      24.79567518      24.83000230      24.82537141      24.88600258      24.91985464      24.82877616  F
H        2.26658151       1.61020094       4.96956471      24.84201228       0.05618167      24.73868272      24.82519895      24.86226088      24.78343963      24.75795233      24.81894771      24.87994449      24.81001761      24.88509670      24.86840433      24.92043865      24.88142364      24.78127870      24.86638982      24.94732137      24.84539901  F
H        0.24408977       3.09100223       4.45549571      23.91844928       0.05440228      23.91775350      23.89525450      23.96287068      23.96487788      23.80897644      23.98951701      23.92001099      23.93929426      23.89125836      23.94331209      23.97243997      23.85745385      23.96776669      23.84908050      23.83785924      23.97746258  F
H        3.69278761       3.29347065       1.69678488      25.16100556       0.04244753      25.22382243      25.14164097      25.11192906      25.18886917      25.11596552      25.20886667      25.14366929      25.18569456      25.16349175      25.14905922      25.13308346      25.07429474      25.15354614      25.14422100      25.23613768      25.20179723  F
H        0.41112184       0.02570742       4.80043445      24.45191401       0.04941562      24.46761919      24.42167801      24.43856517      24.46766639      24.50470080      24.43420775      24.55250324      24.39602175      24.46667799      24.36994277      24.52671851      24.42991021      24.49558162      24.37426032      24.44319259      24.44137789  F
H        3.79953849       0.14016840       1.24799516      23.16961975       0.03967106      23.20906209      23.15986824      23.10751677      23.10147393      23.15616880      23.22989068      23.21208200      23.22538462      23.12437138      23.16215012      23.19249040      23.15965016      23.18081652      23.15304784      23.13011469      23.20982768  F
24
Lattice="5.5062983558 0.0 0.0 0.0 6.509099354340001 0.0 -1.478863071915956 0.0 6.09844831102248" Properties=species:S:1:pos:R:3:CS:R:1:CSerr:R:1:CSens:R:16:center_atoms_mask:L:1 #=T CELL(abcABC):=T 10.40540=T 12.30042=T 11.85841=T 90.00000=T 103.63100=T Step:=T 88540=T Bead:=T 0=T positionsatomic_unit=T cellatomic_unit=T pbc="T T T"
C        1.16485616       2.48438018       0.14073304      31.77175184       0.69654430      32.12742294      31.47759618      30.57875602      32.70748130      30.72734198      31.61864093      32.68632626      30.95140640      32.20212707      32.34089901      31.81829203      32.97599493      31.66497226      31.96978937      31.06113341      31.43984940  T
C        2.80532603       4.07251973       5.97779506      36.80353327       0.61432311      35.32328042      36.70209897      36.82847391      38.14528402      36.65334454      36.66405573      35.93004400      37.23337880      36.74684074      37.06091232      37.33214969      37.40605186      36.74567873      36.51109796      37.13679944      36.43704118  T
C        0.93039371       5.58683910       2.91076984      15.97380393       0.63329613      15.69377403      15.66348552      16.56068400      16.36744127      15.44872379      14.99778403      17.09251461      15.80977779      16.56204036      15.68209883      17.03486069      16.62323735      15.48492169      16.03557103      15.28692222      15.23702570  T
C        3.09058418       0.81458861       3.16921459      56.17747216       0.75985373      54.87377621      55.35353120      56.87925027      56.47626738      56.20290585      55.76110880      56.79416684      55.76044538      55.61571272      55.63473570      57.22314709      57.37091425      56.98615729      55.35926813      57.00878347      55.53938391  T
C        0.09501056       2.63543905       1.19284963      21.31559703       1.14800148      22.72476698      21.77372334      22.71848856      19.74562627      22.03665192      20.65525385      21.84608684      20.89185944      20.55822785      20.27505888      21.03697572      22.82318420      23.04467563      19.05272043      20.37127586      21.49497666  T
C        3.86542631       4.06764072       5.00778187      38.83008567       0.39112574      38.67457436      38.45600696      38.58207097      38.85499357      38.99933785      38.75642481      39.26173451      38.15362003      39.64900778      38.49050458      39.48396183      38.91914176      38.58233435      38.58443710      38.61223394      39.22098637  T