40
# CELL(abcABC):    4.96690    11.45900     5.42310    90.00000   114.91600    90.00000  Step:         133  Bead:       0 positions{angstrom}  cell{angstrom}
       O -1.21489e+00  9.77193e+00  4.41078e+00
       O  3.89710e+00  1.68707e+00  5.07575e-01
       O  2.71303e-01  4.04243e+00  2.96675e+00
       O  2.41090e+00  7.41657e+00  1.95160e+00
       O  1.73930e+00  1.03811e+01  3.71623e+00
       O  9.42910e-01  1.07786e+00  1.20212e+00
       O  2.28401e+00  4.65164e+00  3.66130e+00
       O  3.98193e-01  6.80736e+00  1.25706e+00
       C  2.53197e+00  9.99541e+00  4.59855e+00
       C  1.50236e-01  1.46359e+00  3.19807e-01
       C  1.49134e+00  4.26591e+00  2.77898e+00
       C  1.19087e+00  7.19309e+00  2.13937e+00
       C  4.27893e+00  9.77086e+00  1.07642e+00
       C -1.59673e+00  1.68814e+00  3.84193e+00
       C  2.02907e+00  4.04136e+00  1.38276e+00
       C  6.53138e-01  7.41764e+00  3.53560e+00
       N  2.99352e+00  1.04431e+01  1.27978e+00
       N -3.11310e-01  1.01586e+00  3.63858e+00
       N  3.31449e+00  4.71364e+00  1.17940e+00
       N -6.32279e-01  6.74536e+00  3.73895e+00
       H  4.13967e+00  8.70136e+00  1.22774e+00
       H -1.45747e+00  2.75764e+00  3.69061e+00
       H  2.16833e+00  2.97186e+00  1.23143e+00
       H  5.13878e-01  8.48714e+00  3.68692e+00
       H  3.01056e-02  1.01343e+01  1.80713e+00
       H  2.65210e+00  1.32468e+00  3.11123e+00
       H  1.31100e+00  4.40482e+00  6.52050e-01
       H  1.37121e+00  7.05418e+00  4.26630e+00
       H  2.60739e+00  1.03224e+01  2.24697e+00
       H  7.48196e-02  1.13659e+00  2.67138e+00
       H  3.70062e+00  4.59291e+00  2.12206e-01
       H -1.01841e+00  6.86609e+00  4.70615e+00
       H  2.26936e+00  1.00909e+01  6.12936e-01
       H  4.12849e-01  1.36808e+00  4.30542e+00
       H  4.03865e+00  4.36142e+00  1.84624e+00
       H -1.35644e+00  7.09758e+00  3.07211e+00
       H  3.08183e+00  1.14523e+01  1.11049e+00
       H -3.99619e-01  6.69201e-03  3.80786e+00
       H  3.22618e+00  5.72281e+00  1.34869e+00
       H -5.43970e-01  5.73619e+00  3.56966e+00
