<simulation verbosity='high'>
   <prng>
      <seed>4441</seed>
      <state shape='(624)'>
       [ 1204536844, 4108450026, 887544409, 3633015341, 3666965991, 
         3417062198, 1938493829, 143316147, 3047547270, 2790296764, 
         3340293992, 1721510231, 1285663658, 4086287342, 846144456, 
         1390397593, 3204168908, 909935458, 1209704214, 1661756756, 
         2344746150, 1962839767, 461030336, 463948756, 2494327656, 
         361905852, 4211902331, 2311793074, 1984661482, 1824292338, 
         3334109605, 4283626575, 767588884, 3326752145, 3219454709, 
         1783041927, 2712965762, 249172515, 2469465933, 314421849, 
         3643786015, 3923945402, 661207262, 1360508768, 2031767882, 
         449295355, 1553061346, 2376113620, 3003422185, 3068123921, 
         1293386416, 880362499, 865027941, 1739486659, 2656911730, 
         3057866296, 2717061717, 160334853, 4181628315, 3068441927, 
         413114812, 244241505, 1280169875, 2045543661, 1147000299, 
         3221506561, 2709224008, 455975659, 3939954353, 2214198320, 
         500976729, 2570480074, 2002325210, 3661652571, 1311925447, 
         719958104, 918056317, 2561077150, 2135914647, 782592152, 
         3337737501, 1134779259, 1482692514, 3534715940, 1297149748, 
         3538964347, 3623681595, 2766665876, 1792201268, 1656559836, 
         2908084380, 3546129048, 1131931948, 2436421820, 4265994046, 
         2134555663, 1377871390, 1733351361, 552399855, 3891639228, 
         2806657294, 2262630808, 1300596459, 3566227032, 3164032041, 
         3902242303, 1766104013, 2431758778, 638547483, 616729578, 
         3480581604, 3439692901, 3243842319, 1388269708, 3604729112, 
         2357968406, 4070252865, 3361870652, 2297785974, 2737920461, 
         2917803157, 2884003279, 3749702583, 1492228520, 1319801444, 
         2545848845, 1834430548, 3436250699, 704817762, 2435050853, 
         1925961108, 1130191079, 453532299, 1285537402, 729192435, 
         1761538679, 1191645997, 724145871, 4029448916, 1492890493, 
         3459945039, 3994851268, 1513404629, 747835535, 2998953754, 
         3609440795, 286326952, 1371385034, 1148817682, 3788069274, 
         2684680167, 2972374658, 3679548836, 298585023, 4157848036, 
         3544736352, 2306044057, 482506755, 756737674, 3632117466, 
         2594972069, 1295910036, 2006944258, 413386527, 1063512432, 
         3742601066, 4162706890, 3040367563, 1211957377, 43776115, 
         2738699031, 1497904147, 408296082, 2042802790, 2314248229, 
         1526551801, 3577240720, 3429377381, 873233960, 687031933, 
         2240146609, 3641989510, 2123237828, 1068579222, 3067781880, 
         503395531, 218120424, 1384552608, 827490919, 3150571729, 
         3602619376, 2255497878, 3059227047, 3974981496, 1795349077, 
         375458583, 2596117564, 288043113, 243823846, 3846440672, 
         1578582198, 993466926, 995673917, 908389028, 3257670503, 
         779845894, 2923243339, 625363089, 1136901940, 606547133, 
         3198619542, 3894843168, 2110703263, 3083604164, 4217956801, 
         3354723607, 2536426464, 467749873, 2796640179, 2309740150, 
         2716121206, 3815067833, 1907003745, 613567708, 1692710528, 
         789938967, 1362685972, 1748210171, 3730253376, 70642167, 
         3495426798, 1281005049, 4185421581, 1716981552, 1429191743, 
         302826510, 1126573441, 3393524432, 1014014498, 951683094, 
         3598995260, 2315000800, 2189156892, 2466050525, 2980835829, 
         3861359951, 3531945998, 2952358169, 955363872, 1311583641, 
         1656184391, 1789224967, 3761791258, 2959745029, 920159177, 
         2805737614, 512110604, 4277135602, 519754941, 3953205879, 
         229341963, 1122160613, 3288419756, 3133934154, 4292451859, 
         2723784946, 2413459878, 334497325, 2920078997, 517313995, 
         3440515874, 1743839125, 1402087628, 602311827, 3875110153, 
         517328187, 858446760, 3533379735, 286773480, 1376741688, 
         1951438046, 1906678962, 2441332653, 1343975737, 3719632496, 
         4289244118, 2869992417, 4214892729, 624795193, 3996004027, 
         4028819600, 2598941583, 887190398, 3950768727, 1565822296, 
         950215219, 1786814310, 1408527989, 932242151, 3830577246, 
         1226221295, 401273067, 4197592096, 507627140, 2187411619, 
         1982484321, 3432511494, 1395541647, 603208181, 2146983630, 
         3565013857, 2671313102, 3955733561, 729658930, 1809266562, 
         2485211444, 1481575607, 1120690080, 3510548566, 2396436745, 
         3479059397, 420484178, 2431820692, 723817505, 3133790960, 
         506797377, 2090504605, 2292274408, 494659934, 1453559356, 
         4201059517, 1429822996, 2715256378, 2677243329, 670703066, 
         3592764076, 4024661879, 434280139, 684338466, 2905490547, 
         4172864104, 1959921567, 3274249736, 3007735520, 3015429071, 
         433533540, 517313540, 2295562953, 3362660740, 1150863740, 
         4199663190, 136227951, 2616078351, 222150010, 3412176642, 
         1347566171, 4048149980, 3077811221, 2906522583, 492944850, 
         1836908106, 571901397, 1207882202, 168879551, 108334152, 
         2235058876, 1505022991, 477175026, 4131735340, 850575981, 
         3829354357, 1440129690, 3116681695, 1913821326, 2628340118, 
         3116850233, 370541637, 3303774784, 2588582924, 1872034720, 
         2951793333, 3483641251, 664352151, 3012656434, 378128958, 
         828099502, 772754208, 3233790067, 3119941242, 1134277361, 
         3572191253, 518789094, 3574848904, 666136816, 1574970745, 
         4079238864, 1292844878, 1628050317, 3775601604, 885625390, 
         1700797065, 908880297, 3678146820, 2213744093, 3419105522, 
         813003481, 1084265286, 930171811, 2797861150, 1247319485, 
         1242925630, 1550859207, 3177673976, 417607715, 1082151007, 
         80010830, 4160920050, 3579734890, 3114244053, 2575824110, 
         2736180878, 716304092, 3854172484, 3823489932, 691797832, 
         2483558775, 3148344134, 478413790, 3878913894, 1392507433, 
         2018982325, 715814098, 2803885574, 1046923831, 372044280, 
         2837478563, 246967887, 2618141664, 3680099637, 1043793665, 
         1945123396, 993553127, 4251786478, 247982142, 3095952307, 
         326301402, 2609589533, 2390923143, 1946972430, 3996888603, 
         539947657, 2032817934, 563299057, 3711158090, 301029735, 
         4253868150, 3751691247, 3911848834, 1579740253, 1915949328, 
         200717729, 256026686, 819077230, 2913774437, 730868325, 
         2467735581, 1943037175, 1160874411, 362853750, 1126376243, 
         1617486213, 85184183, 2271524304, 3795423005, 1303846539, 
         3194878607, 876848788, 513928196, 3947951101, 1794134226, 
         476306390, 3436992135, 36372536, 4169711254, 2368119886, 
         1846403870, 1043010, 4036933637, 2221884742, 1340371101, 
         2236593739, 1994308249, 1694020326, 1161747860, 729988327, 
         1338861718, 1966352507, 1141771535, 1639268749, 968377783, 
         1237640430, 3394068185, 2713326166, 2649379008, 1453440483, 
         2406152862, 3250684484, 4262089348, 2188602430, 104375142, 
         1491730250, 1361505731, 40952306, 2336469426, 1275870949, 
         2201935067, 3186180830, 434033742, 3043025567, 4027091037, 
         3172723507, 1826467367, 2251405626, 3295837302, 4054302109, 
         81589478, 1995778325, 3898347817, 1425043748, 1006633170, 
         324810416, 346647646, 925266913, 2232864518, 2687433133, 
         2055069041, 530477328, 1436728653, 4035890615, 2406616208, 
         3182701748, 1511409900, 750004901, 3324271654, 3541157604, 
         2076216054, 3244845271, 600463492, 3452051339, 3058123031, 
         1041152659, 1000462058, 4124801561, 207624666, 3363210880, 
         4039161044, 2740795813, 3110067088, 3049112392, 1601105522, 
         2815581867, 1408264230, 1140602416, 331922612, 639916494, 
         954150905, 3931690939, 2154242384, 796202238, 588680500, 
         2181790304, 3127297718, 1332767011, 2812111010, 2847905854, 
         1543655927, 4147805329, 522004769, 2032059406, 2159198497, 
         1012275155, 1609029171, 863062547, 464304026, 2871129957, 
         3134322809, 3351300172, 3784528377, 410754783, 1155954655, 
         1901857065, 3438194711, 3880237608, 3625413878, 752085304, 
         2828136439, 2664186743, 3187247848, 4260453465, 3478756496, 
         2517559259, 2517420327, 3374163884, 2772638213, 3343834360, 
         1714139827, 985769729, 1617608387, 1802296137, 3281043560, 
         1567014191, 2808867779, 3713394594, 3363663303, 2508854083, 
         356134722, 2696235636, 2129416872, 1884484940, 3214883249, 
         1218777411, 1290221800, 814409083, 1860885576 ]
      </state>
      <set_pos>480</set_pos>
   </prng>
   <output prefix='simulation'>
      <properties shape='(6)' stride='10'>
       [ step, time{picosecond}, potential{electronvolt}, conserved, temperature{kelvin}, 
         ensemble_temperature{kelvin} ]
      </properties>
      <trajectory filename='pos' stride='10'>positions</trajectory>
      <trajectory filename='frc' stride='10'>forces</trajectory>
      <checkpoint stride='1000'>81</checkpoint>
   </output>
   <step>80000</step>
   <total_steps>80000</total_steps>
   <total_time>  2.50000000e+05</total_time>
   <ffsocket mode='unix' name='driver-dftb'>
      <address>dftb-nvt-bII</address>
   </ffsocket>
   <ffsocket mode='unix' name='driver-gap'>
      <address>gapd-nvt-bII</address>
   </ffsocket>
   <system>
      <forces>
         <force forcefield='driver-dftb'>
         </force>
         <force forcefield='driver-gap'>
         </force>
      </forces>
      <ensemble>
         <temperature>  3.16681520e-04</temperature>
         <eens>  1.20940241e+01</eens>
         <hamiltonian_weights shape='(2)'> [   1.00000000e+00,   1.00000000e+00 ] </hamiltonian_weights>
         <time>  1.65365492e+06</time>
      </ensemble>
      <motion mode='dynamics'>
         <dynamics mode='nvt'>
            <thermostat mode='langevin'>
               <ethermo> -5.35875365e+01</ethermo>
               <tau>  4.13413730e+03</tau>
            </thermostat>
            <timestep>  2.06706865e+01</timestep>
            <nmts shape='(1)'> [ 1 ] </nmts>
         </dynamics>
      </motion>
      <beads natoms='48' nbeads='32'>
         <q shape='(32, 144)'>
          [   4.03435065e+00,   1.71907594e+00,   1.48599122e+00,   6.94652044e+00,   9.17847765e+00, 
              1.46534257e+01,   4.07314939e+00,   9.00890847e+00,   2.09218873e+01,   6.58119369e+00, 
              1.57603802e+00,   7.96837198e+00,   1.39260171e+00,   6.62974208e+00,   1.80784623e+01, 
              9.38649725e+00,   4.19450113e+00,   5.25171698e+00,   1.14492920e+00,   3.36754048e+00, 
              2.44017577e+01,   9.28673715e+00,   6.87970090e+00,   1.15898557e+01,   5.82741788e+00, 
              2.15734454e+00,   2.38493011e+00,   5.94855026e+00,   8.75332130e+00,   1.63142669e+01, 
              3.88625899e+00,   1.05539219e+01,   2.21162221e+01,   6.18379661e+00,  -1.71694208e-01, 
              8.90964587e+00,  -4.83167310e-02,   6.34339255e+00,   1.64642876e+01,   1.11023194e+01, 
              4.49367628e+00,   4.35283284e+00,   7.27347379e-01,   4.91133624e+00,   2.32141836e+01, 
              9.68585353e+00,   5.32341730e+00,   1.06010863e+01,   2.21318371e+00,   1.02435916e+01, 
              1.71054156e+00,   8.77206235e+00,   6.56120609e-01,   1.45229857e+01,   5.77798998e+00, 
              6.92791170e+00,   2.09946427e+01,   4.75636573e+00,   3.57042670e+00,   8.09575456e+00, 
              3.02403634e+00,   4.65496714e+00,   1.79035891e+01,   7.48128027e+00,   6.12948016e+00, 
              5.28349379e+00,   1.02367097e+01,   1.36669621e+00,   2.46838184e+01,   5.14307361e-01, 
              8.57686971e+00,   1.15654056e+01,   2.88147997e+00,   8.92206096e+00,   2.92812100e+00, 
              8.81494033e+00,   1.91795669e+00,   1.61626219e+01,   7.76085940e+00,   6.90773390e+00, 
              2.20427705e+01,   2.96362782e+00,   3.18817473e+00,   8.76323434e+00,   2.86030449e+00, 
              2.69223214e+00,   1.68379151e+01,   7.77925139e+00,   8.05573463e+00,   4.26280330e+00, 
              8.45154465e+00,   1.15553499e+00,   2.32894224e+01,   2.48735517e+00,   8.66120167e+00, 
              1.04583461e+01,   1.06719092e+01,   1.00196331e+01,   4.20176665e-01,   3.87953730e-01, 
              2.81304316e-01,   1.31887567e+01,   5.25853365e+00,   4.86361646e+00,   1.94497516e+01, 
              5.15338143e+00,   5.75181039e+00,   6.47017440e+00,   9.75498162e+00,   8.61814505e+00, 
              5.20777343e-01,   1.79984416e+00,   1.54669632e+00,   1.26177125e+01,   6.86853039e+00, 
              3.19800942e+00,   1.96000859e+01,   3.25176203e+00,   7.06183039e+00,   6.71228802e+00, 
              3.21653073e+00,   3.65741805e+00,  -2.51723391e-01,   7.34633224e+00,   7.05955664e+00, 
              1.32277157e+01,   1.72346341e+00,   8.78772540e+00,   1.95630189e+01,   8.84419112e+00, 
              1.99004322e+00,   6.58305057e+00,   4.48917192e+00,   5.22887858e+00,  -2.99418410e-01, 
              5.75885988e+00,   5.46718188e+00,   1.31001919e+01,   1.09532914e-01,   1.02740461e+01, 
              1.96549016e+01,   1.03524898e+01,   5.85874943e-01,   6.63263281e+00,   4.00024137e+00, 
              1.88414566e+00,   1.44517941e+00,   7.01064054e+00,   9.26103797e+00,   1.45890352e+01, 
              4.04761503e+00,   8.98326688e+00,   2.10220091e+01,   6.64005169e+00,   1.62486097e+00, 
              8.00144995e+00,   1.28655306e+00,   6.72214262e+00,   1.80721470e+01,   9.39538975e+00, 
              4.06106846e+00,   5.36298824e+00,   1.15557315e+00,   3.49337011e+00,   2.44904994e+01, 
              9.32555728e+00,   6.79991273e+00,   1.16056226e+01,   5.88734964e+00,   1.96021345e+00, 
              2.33367314e+00,   5.98276169e+00,   8.94264663e+00,   1.64003545e+01,   4.26154752e+00, 
              1.05626626e+01,   2.22145781e+01,   6.42833420e+00,  -1.78016524e-01,   9.15630703e+00, 
             -6.37024248e-02,   6.21967846e+00,   1.65198712e+01,   1.12508325e+01,   4.39357964e+00, 
              4.69449586e+00,   7.02105918e-01,   5.01628136e+00,   2.33034032e+01,   9.73369425e+00, 
              5.30588756e+00,   1.01716973e+01,   2.29075681e+00,   1.02086913e+01,   1.73021004e+00, 
              8.73275866e+00,   6.44891012e-01,   1.45845642e+01,   5.76441472e+00,   6.90685234e+00, 
              2.09531541e+01,   4.82916752e+00,   3.52190734e+00,   8.12026551e+00,   3.04304791e+00, 
              4.66574437e+00,   1.80015987e+01,   7.41981313e+00,   6.03671566e+00,   5.31665806e+00, 
              1.01771548e+01,   1.40481339e+00,   2.47288964e+01,   5.58428710e-01,   8.65068912e+00, 
              1.15604204e+01,   2.99975994e+00,   8.83057154e+00,   3.07790081e+00,   8.96515255e+00, 
              2.29077789e+00,   1.62655850e+01,   7.69610823e+00,   6.94294622e+00,   2.18054288e+01, 
              3.10654914e+00,   3.18721619e+00,   8.83238509e+00,   2.74949747e+00,   3.00423226e+00, 
              1.68616913e+01,   7.82317272e+00,   7.83139029e+00,   4.38792742e+00,   8.45653542e+00, 
              1.50226032e+00,   2.34683700e+01,   2.16398433e+00,   8.93626252e+00,   1.02456168e+01, 
              1.06835734e+01,   1.01336669e+01,   3.13997708e-01,   3.62615023e-01,   2.98814825e-01, 
              1.31995306e+01,   5.25132672e+00,   4.80726302e+00,   1.94179167e+01,   5.18867827e+00, 
              5.73628974e+00,   6.49249711e+00,   9.44555764e+00,   8.57293103e+00,   7.28346726e-01, 
              1.58075475e+00,   1.76761952e+00,   1.28793075e+01,   6.85263920e+00,   3.29358516e+00, 
              1.94027471e+01,   3.48997823e+00,   7.16819480e+00,   6.77208439e+00,   3.21679229e+00, 
              3.77138240e+00,  -1.15165069e-01,   7.35371199e+00,   7.06746908e+00,   1.31475922e+01, 
              1.70564882e+00,   8.83261816e+00,   1.95438256e+01,   8.80619190e+00,   1.80787432e+00, 
              6.59263814e+00,   4.32435845e+00,   5.44661787e+00,  -1.01177570e-01,   5.97053047e+00, 
              5.39364283e+00,   1.31499571e+01,   3.41158620e-01,   1.01838777e+01,   1.95414945e+01, 
              1.02197239e+01,   4.60973308e-01,   6.69506536e+00,   3.97288125e+00,   1.80726083e+00, 
              1.42852244e+00,   6.96931172e+00,   9.36639271e+00,   1.46732303e+01,   4.02979731e+00, 
              8.99093873e+00,   2.09367567e+01,   6.64878831e+00,   1.64956711e+00,   8.06499666e+00, 
              1.19304307e+00,   6.70936468e+00,   1.80447770e+01,   9.26662093e+00,   4.10864966e+00, 
              5.39531389e+00,   1.12656952e+00,   3.60071794e+00,   2.45437344e+01,   9.27431343e+00, 
              6.85149612e+00,   1.15527529e+01,   5.74958837e+00,   1.93650435e+00,   2.43754028e+00, 
              5.99479211e+00,   8.96038583e+00,   1.65215851e+01,   4.38988342e+00,   1.04882600e+01, 
              2.22973946e+01,   6.16993592e+00,  -2.85614244e-01,   9.23202998e+00,  -5.43335158e-02, 
              6.44230556e+00,   1.66679581e+01,   1.08884639e+01,   4.56405176e+00,   4.66357553e+00, 
              7.70495696e-01,   5.13428445e+00,   2.34281563e+01,   9.44008418e+00,   5.23990224e+00, 
              1.01139444e+01,   2.37708180e+00,   1.01844348e+01,   1.67744141e+00,   8.83140021e+00, 
              5.31574949e-01,   1.45148686e+01,   5.77732907e+00,   6.89037539e+00,   2.10245538e+01, 
              4.88409333e+00,   3.44865281e+00,   7.94183543e+00,   3.06499817e+00,   4.68925544e+00, 
              1.80246841e+01,   7.40485697e+00,   6.07795799e+00,   5.30951277e+00,   1.02286152e+01, 
              1.40772104e+00,   2.47184164e+01,   5.67703227e-01,   8.79471498e+00,   1.15990918e+01, 
              3.05146692e+00,   8.68059919e+00,   2.98679441e+00,   8.78368447e+00,   2.50371985e+00, 
              1.60666732e+01,   7.65205106e+00,   7.10082323e+00,   2.18286849e+01,   3.05139477e+00, 
              3.15118004e+00,   9.02644183e+00,   2.93782636e+00,   2.98041069e+00,   1.67393674e+01, 
              7.79573654e+00,   7.67181975e+00,   4.47504228e+00,   8.50973256e+00,   1.36205614e+00, 
              2.35501635e+01,   2.19265235e+00,   8.75271921e+00,   1.02046810e+01,   1.07602287e+01, 
              1.01129395e+01,   2.87594873e-01,   3.74379388e-01,   2.99078888e-01,   1.31327756e+01, 
              5.23347059e+00,   4.74957861e+00,   1.93642337e+01,   5.15841806e+00,   5.66870775e+00, 
              6.56042217e+00,   9.75765783e+00,   8.47857781e+00,   7.36172693e-01,   1.64539062e+00, 
              1.76761678e+00,   1.32111567e+01,   6.82536836e+00,   3.21111721e+00,   1.97604643e+01, 
              3.62529883e+00,   7.24829459e+00,   6.91678394e+00,   3.14294903e+00,   3.92254242e+00, 
             -1.15560129e-01,   7.29944385e+00,   6.99278462e+00,   1.32062288e+01,   1.68687909e+00, 
              8.88564652e+00,   1.95485026e+01,   8.81512496e+00,   1.86912351e+00,   6.64968853e+00, 
              4.15613574e+00,   5.45768067e+00,  -2.54321260e-01,   6.13179059e+00,   5.40551071e+00, 
              1.36868719e+01,   3.30831088e-01,   1.05044030e+01,   1.95634030e+01,   1.04892578e+01, 
              5.10812833e-01,   6.46828485e+00,   3.94012362e+00,   1.83556983e+00,   1.41388646e+00, 
              7.01063304e+00,   9.28270492e+00,   1.47922916e+01,   3.98945095e+00,   8.96024112e+00, 
              2.09313287e+01,   6.61961498e+00,   1.68956640e+00,   7.93412252e+00,   1.17981144e+00, 
              6.69758385e+00,   1.79667367e+01,   9.30664514e+00,   4.11083397e+00,   5.32906644e+00, 
              1.17005989e+00,   3.65011503e+00,   2.44080317e+01,   9.22900252e+00,   6.91646044e+00, 
              1.16225197e+01,   5.59656506e+00,   2.20598349e+00,   2.56336609e+00,   5.77100037e+00, 
              9.26506525e+00,   1.63706751e+01,   4.36793152e+00,   1.04812669e+01,   2.22890898e+01, 
              6.42247122e+00,  -9.90659926e-04,   9.27655306e+00,  -4.65733725e-01,   6.47679339e+00, 
              1.67386304e+01,   1.09647015e+01,   4.53229156e+00,   4.52270379e+00,   9.72440404e-01, 
              5.09359097e+00,   2.31981876e+01,   9.34229447e+00,   5.15131792e+00,   1.04110418e+01, 
              2.28806857e+00,   1.01789061e+01,   1.69921802e+00,   8.79446214e+00,   5.50793851e-01, 
              1.44421604e+01,   5.77374455e+00,   6.85207172e+00,   2.10515756e+01,   4.85108732e+00, 
              3.47347518e+00,   7.89748524e+00,   3.09360452e+00,   4.69154456e+00,   1.80325991e+01, 
              7.42506482e+00,   6.12763386e+00,   5.35854975e+00,   1.02075477e+01,   1.41287203e+00, 
              2.47613841e+01,   4.51469978e-01,   8.63811964e+00,   1.16252315e+01,   2.87933177e+00, 
              8.72138479e+00,   2.93817379e+00,   8.92629724e+00,   2.24990344e+00,   1.57787062e+01, 
              7.58650835e+00,   7.19456525e+00,   2.19221884e+01,   2.86768413e+00,   3.07852064e+00, 
              8.99380502e+00,   2.50310462e+00,   2.87033912e+00,   1.70886535e+01,   7.74811752e+00, 
              7.78274340e+00,   4.37404105e+00,   8.67120566e+00,   1.30318905e+00,   2.37624898e+01, 
              2.14410065e+00,   8.40585842e+00,   1.02371260e+01,   1.07553311e+01,   1.00652542e+01, 
              3.03048866e-01,   3.61886781e-01,   2.39844250e-01,   1.31398475e+01,   5.20792408e+00, 
              4.81497493e+00,   1.93834015e+01,   5.25438462e+00,   5.79717673e+00,   6.51158872e+00, 
              9.69237026e+00,   8.35263688e+00,   5.91566433e-02,   2.22665113e+00,   1.39553029e+00, 
              1.32773140e+01,   6.73317080e+00,   3.24537225e+00,   1.96631171e+01,   3.94333992e+00, 
              7.23948519e+00,   6.85796413e+00,   3.17653681e+00,   3.83372621e+00,  -1.09640435e-01, 
              7.13157856e+00,   7.07478221e+00,   1.31601493e+01,   1.58752894e+00,   8.90376222e+00, 
              1.95829974e+01,   8.91349576e+00,   2.00853681e+00,   6.60162005e+00,   4.30553540e+00, 
              5.54666340e+00,  -3.01368634e-01,   5.68867747e+00,   5.68422673e+00,   1.34164665e+01, 
              4.11610273e-01,   1.06578072e+01,   1.98111496e+01,   1.00752494e+01,   4.53344728e-01, 
              6.07545264e+00,   3.97983716e+00,   1.79843470e+00,   1.41156843e+00,   7.02014068e+00, 
              9.35809927e+00,   1.46646530e+01,   3.96105353e+00,   8.86536083e+00,   2.10256047e+01, 
              6.62790525e+00,   1.65983249e+00,   7.94274688e+00,   1.20638733e+00,   6.71486151e+00, 
              1.79775289e+01,   9.41536355e+00,   4.16332554e+00,   5.25470712e+00,   1.11103810e+00, 
              3.64087254e+00,   2.44681585e+01,   9.15237618e+00,   6.91800406e+00,   1.15150147e+01, 
              5.66818621e+00,   1.99438468e+00,   2.49410453e+00,   5.68836936e+00,   9.24517271e+00, 
              1.60921969e+01,   4.19873154e+00,   1.05670513e+01,   2.23155397e+01,   6.43252455e+00, 
              1.71903398e-01,   9.37693779e+00,  -5.60435273e-01,   6.51619546e+00,   1.68622199e+01, 
              1.12055858e+01,   4.84889312e+00,   4.47217119e+00,   8.82165986e-01,   5.11247926e+00, 
              2.28676253e+01,   9.14945181e+00,   5.29857491e+00,   1.03322672e+01,   2.21649982e+00, 
              1.01873978e+01,   1.60662374e+00,   8.83381139e+00,   5.77374878e-01,   1.44514750e+01, 
              5.76573934e+00,   6.91409957e+00,   2.11770685e+01,   4.84775271e+00,   3.50865946e+00, 
              7.85409938e+00,   3.07717210e+00,   4.67250679e+00,   1.79337970e+01,   7.49664717e+00, 
              6.14269791e+00,   5.30191925e+00,   1.02050742e+01,   1.48657061e+00,   2.47447625e+01, 
              5.03749789e-01,   8.68758004e+00,   1.16129442e+01,   2.67465729e+00,   8.70010837e+00, 
              2.82854340e+00,   8.77596470e+00,   2.01915772e+00,   1.59416521e+01,   7.55182132e+00, 
              7.32533668e+00,   2.21742149e+01,   2.78605006e+00,   3.04315172e+00,   9.05343173e+00, 
              2.42608711e+00,   3.13958862e+00,   1.68577340e+01,   7.71440674e+00,   7.71381474e+00, 
              4.40286316e+00,   8.64812601e+00,   1.32927692e+00,   2.36650545e+01,   2.29570921e+00, 
              8.52013303e+00,   1.03149950e+01,   1.07868927e+01,   1.00238372e+01,   3.15439879e-01, 
              4.37242080e-01,   1.72678035e-01,   1.30365066e+01,   5.24759894e+00,   4.80258801e+00, 
              1.94175829e+01,   5.28289896e+00,   5.77251686e+00,   6.53470617e+00,   9.96967698e+00, 
              8.06232655e+00,   1.91815227e-01,   2.03498599e+00,   1.30964799e+00,   1.33276312e+01, 
              6.59625856e+00,   3.22198461e+00,   1.95209587e+01,   3.86603807e+00,   7.66154273e+00, 
              6.67919640e+00,   3.21495594e+00,   3.75320332e+00,  -9.94383572e-02,   7.16664230e+00, 
              7.08551532e+00,   1.31597930e+01,   1.65544733e+00,   8.84997739e+00,   1.95802765e+01, 
              8.93541864e+00,   1.91181761e+00,   6.52637749e+00,   4.34430831e+00,   5.49585286e+00, 
             -3.09369686e-01,   5.79494144e+00,   5.86046724e+00,   1.35458134e+01,   3.26914795e-01, 
              1.04388041e+01,   2.00386364e+01,   1.04369517e+01,   2.56682815e-01,   6.09036664e+00, 
              3.91609772e+00,   1.87213708e+00,   1.33251048e+00,   6.95205457e+00,   9.32342672e+00, 
              1.46949937e+01,   3.98911983e+00,   8.83456599e+00,   2.09950294e+01,   6.54080579e+00, 
              1.49110452e+00,   7.90789938e+00,   1.18594562e+00,   6.57213976e+00,   1.80151986e+01, 
              9.33689760e+00,   4.15107796e+00,   5.32722020e+00,   1.24233755e+00,   3.63203478e+00, 
              2.44299143e+01,   9.20741745e+00,   6.81840489e+00,   1.15099014e+01,   5.51927463e+00, 
              2.01634861e+00,   2.53883539e+00,   5.53837441e+00,   9.56552602e+00,   1.62797743e+01, 
              4.24784702e+00,   1.04334799e+01,   2.22466907e+01,   6.29363962e+00,  -1.01911318e-01, 
              9.25899576e+00,  -5.11540440e-01,   6.39547599e+00,   1.70670539e+01,   1.12416772e+01, 
              4.46209013e+00,   4.45103056e+00,   1.01882179e+00,   5.15134493e+00,   2.28606363e+01, 
              9.02044799e+00,   5.15016745e+00,   1.02221534e+01,   2.27172917e+00,   1.02676170e+01, 
              1.59587400e+00,   8.78951859e+00,   5.13846354e-01,   1.45479814e+01,   5.76786331e+00, 
              6.83346179e+00,   2.10945009e+01,   4.87197737e+00,   3.46785225e+00,   7.79606418e+00, 
              3.10160504e+00,   4.61779301e+00,   1.79358548e+01,   7.51047838e+00,   6.17648766e+00, 
              5.22488113e+00,   1.01997300e+01,   1.52023568e+00,   2.48017571e+01,   5.14066073e-01, 
              8.59549495e+00,   1.14986363e+01,   2.60073643e+00,   8.75290084e+00,   2.82201737e+00, 
              8.86615789e+00,   2.09220268e+00,   1.58964346e+01,   7.82427912e+00,   7.07654315e+00, 
              2.20217585e+01,   3.13845027e+00,   2.94176965e+00,   8.97931734e+00,   2.25865955e+00, 
              3.12187782e+00,   1.68612753e+01,   7.56742927e+00,   7.88614037e+00,   4.13283605e+00, 
              8.31916649e+00,   1.43579637e+00,   2.37000913e+01,   2.01938354e+00,   8.18229648e+00, 
              1.02683305e+01,   1.06613682e+01,   1.00462605e+01,   1.44531804e-01,   3.93414657e-01, 
              1.86001938e-01,   1.30153225e+01,   5.25511490e+00,   4.82468823e+00,   1.93740921e+01, 
              5.26848428e+00,   5.70538877e+00,   6.43485581e+00,   1.00396887e+01,   8.11760067e+00, 
              2.51188349e-01,   1.95082831e+00,   1.02028140e+00,   1.34140229e+01,   6.36674248e+00, 
              3.36842317e+00,   1.92872328e+01,   3.85579083e+00,   7.45055436e+00,   6.29135300e+00, 
              3.17889853e+00,   3.79644264e+00,  -1.41335129e-01,   7.23179168e+00,   7.09849952e+00, 
              1.31879417e+01,   1.65852653e+00,   8.73193922e+00,   1.96764199e+01,   8.91356272e+00, 
              1.97142384e+00,   6.64222430e+00,   4.09563316e+00,   5.41387594e+00,  -1.75622414e-01, 
              5.58113714e+00,   5.82423731e+00,   1.33280422e+01,   2.94089335e-01,   1.02847791e+01, 
              1.98056594e+01,   1.02419243e+01,   2.17537920e-01,   6.57821218e+00,   3.86801341e+00, 
              1.84612400e+00,   1.28422678e+00,   6.86670151e+00,   9.38882715e+00,   1.46422942e+01, 
              3.90208966e+00,   8.84333313e+00,   2.09677136e+01,   6.64474159e+00,   1.45362661e+00, 
              7.96460131e+00,   1.21147685e+00,   6.55825549e+00,   1.80463829e+01,   9.37058121e+00, 
              4.22696632e+00,   5.31243753e+00,   1.15820401e+00,   3.53201316e+00,   2.44047986e+01, 
              9.21480434e+00,   6.81696636e+00,   1.15753080e+01,   5.43312294e+00,   1.77275388e+00, 
              2.74414366e+00,   5.49653182e+00,   9.15676830e+00,   1.61947927e+01,   4.43307173e+00, 
              1.05363834e+01,   2.18851657e+01,   6.19133880e+00,  -1.63348601e-01,   9.00053202e+00, 
             -6.35061643e-01,   6.37045704e+00,   1.69590678e+01,   1.10870706e+01,   4.66899129e+00, 
              4.13785516e+00,   4.52368883e-01,   5.25536854e+00,   2.31942015e+01,   8.96744555e+00, 
              5.15459177e+00,   1.03630449e+01,   2.28170869e+00,   1.03057687e+01,   1.62480679e+00, 
              8.66877565e+00,   5.20297516e-01,   1.45492826e+01,   5.73942663e+00,   6.90283404e+00, 
              2.10541664e+01,   4.70464873e+00,   3.41739112e+00,   7.80790170e+00,   3.05129031e+00, 
              4.67222192e+00,   1.79396719e+01,   7.43996201e+00,   6.12378845e+00,   5.15976622e+00, 
              1.01243943e+01,   1.40528047e+00,   2.48415459e+01,   4.96987397e-01,   8.59384024e+00, 
              1.15424609e+01,   2.91640183e+00,   8.72728744e+00,   2.97735218e+00,   8.76396520e+00, 
              2.03061858e+00,   1.57953907e+01,   7.46708754e+00,   7.00976990e+00,   2.19208593e+01, 
              3.00463106e+00,   3.18715101e+00,   8.96917123e+00,   2.38516166e+00,   3.00637910e+00, 
              1.66642469e+01,   7.69258336e+00,   7.86226616e+00,   4.17215501e+00,   8.51785103e+00, 