<simulation verbosity='high'>
   <prng>
      <seed>4441</seed>
      <state shape='(624)'>
       [ 686513181, 3404458350, 4040296085, 4059517176, 1208901632, 
         1843080309, 2504893394, 1817074788, 3342404498, 1805355775, 
         1511793338, 315663919, 2207307076, 866784446, 1878539536, 
         42689263, 513413647, 3157123831, 4027458141, 4023881209, 
         3528750904, 2711116637, 1630689028, 1631785891, 4064572864, 
         1237086063, 948172497, 347374208, 2761203139, 1490235278, 
         1544474013, 2931099584, 2041602010, 3826415724, 3723346317, 
         295236545, 1547358929, 4134881296, 3733785543, 997850802, 
         279349903, 2595276071, 2965947069, 4143299537, 3188575343, 
         3504117481, 916322007, 2517455918, 1129723821, 3647986611, 
         1691075988, 1526511879, 2792627956, 2202315979, 4138392434, 
         1682934638, 3433775204, 715413442, 546388915, 406795453, 
         1364160620, 734153666, 1298647043, 2721661239, 3468169050, 
         1406833089, 4020710276, 780964561, 2804999555, 669160436, 
         3417215200, 904714969, 1705150410, 2803215621, 971080075, 
         2355438442, 3564357661, 3397874523, 3397167657, 3580727844, 
         2570538858, 2292463441, 3591936976, 1492606753, 1261990519, 
         788364405, 200979054, 3093607669, 3934088724, 1646384733, 
         1825554793, 3510524020, 756551197, 1582329546, 3385217113, 
         2829789335, 1068998876, 95468116, 2715959945, 3093947576, 
         1655471256, 2324745328, 2257438341, 895034312, 3275493141, 
         3364302277, 311358441, 1895793323, 295500302, 682445372, 
         3193851438, 3979293095, 1385367142, 3000227784, 2723761839, 
         2260048479, 671004861, 1807677714, 490581251, 91145332, 
         1535932741, 3939179994, 2899904846, 1934243343, 3239562700, 
         330195492, 3837774763, 862324968, 1522032119, 2670816378, 
         960357342, 1602721307, 183159752, 1688188927, 2229294487, 
         2863422208, 2061003472, 2406781590, 3434250915, 860973787, 
         1810624288, 1079294585, 1000388563, 4237159343, 4017171679, 
         1277145398, 46083389, 2434958510, 396088032, 1410001330, 
         27731096, 2311926080, 3671446276, 1540840044, 729671830, 
         2787074492, 1416870221, 3178482056, 1517653230, 386742225, 
         2658720438, 2567353709, 2050406788, 4197164892, 97841129, 
         593065737, 1247550202, 85496631, 2091929045, 2504422552, 
         3734343681, 718503141, 1150558451, 585625307, 1160959728, 
         3730691819, 3572219286, 2617532096, 494713438, 4036937758, 
         3927059554, 253027173, 269040611, 4273278947, 3622350134, 
         3128844174, 2659945142, 320755835, 2369173506, 3928583312, 
         1515629811, 1104656105, 4285401981, 1656386012, 2764660375, 
         1379538013, 1458645799, 1026664950, 88265293, 2323917296, 
         4209259775, 866337286, 104256121, 2324321982, 3317223001, 
         2285598840, 3970159164, 2551274150, 3528644288, 1834715390, 
         3224098852, 1416273145, 3078501734, 4155781274, 2640728021, 
         2056991480, 1083689142, 1841089730, 571788080, 1059347946, 
         3535450227, 493883822, 1171122594, 2786564327, 2320689005, 
         4048537668, 1770193225, 1848560010, 3656001833, 1070991878, 
         2996234348, 2393031391, 1065699556, 1511446450, 2040234618, 
         53086723, 3520741457, 753280507, 1875846599, 3393427545, 
         1067755898, 2680240489, 1463481119, 2841689504, 188197606, 
         4211686908, 2578345037, 446650171, 3193718675, 2734279686, 
         3565426746, 3231652764, 2517589511, 3286942942, 3788717034, 
         1705324771, 2085159468, 1518317856, 1709917281, 3556006813, 
         1604184402, 985576196, 888782649, 4065259920, 1988729156, 
         516435725, 772673447, 1015373778, 2710798403, 349783128, 
         4203433060, 138554515, 1747732990, 1568510488, 3122090935, 
         4017873699, 441042677, 4020669231, 3411215717, 3878434519, 
         245669918, 268393394, 2934696076, 1572342708, 3328025095, 
         4100852993, 2907186617, 2720463978, 990008364, 2706695836, 
         2615087559, 229888633, 3817338227, 2180519287, 732919568, 
         3201627713, 2286183229, 58439567, 2431000541, 3904987587, 
         2914452288, 3829997255, 3680535763, 274110834, 2015404325, 
         2095266928, 724386763, 2211084734, 4206814362, 2352486744, 
         1025022891, 1565722687, 260286502, 3144979402, 2659589590, 
         4157163715, 562174066, 3236357290, 1232266581, 2528810600, 
         2783703773, 3580142588, 1774856714, 763714089, 3558917273, 
         3625662117, 3698675738, 2069685779, 952590880, 3780219295, 
         4019037758, 4283398824, 2212845537, 1884678220, 3873266478, 
         2381385877, 639971193, 2283627787, 1020439823, 405969296, 
         3778380801, 2599087892, 1414145285, 3202696587, 1033201967, 
         2662475676, 1174168568, 3839314968, 212843794, 2203675201, 
         1613682841, 3312472600, 2478268716, 691209663, 3809354860, 
         28378104, 3636842108, 4225033671, 3321403210, 1647856705, 
         3939499470, 4209470799, 1561410017, 4290745563, 1669877376, 
         535253202, 827538491, 2229689509, 4152357730, 1792788806, 
         353157315, 3979971990, 3827908807, 3094515891, 2669601727, 
         1567692463, 1046811342, 1554761400, 3300843427, 3044964659, 
         597248180, 503032248, 4015075925, 94233665, 1457901869, 
         4242728802, 566028843, 3775645353, 1045811778, 307474427, 
         1551377972, 3805493302, 511885736, 4157935114, 3803768440, 
         3304091584, 1698730902, 2358263924, 4138365670, 323413424, 
         1971052644, 604529186, 2225722886, 3903361888, 3926877587, 
         1716864207, 1040708357, 2905121507, 2182259941, 1631143435, 
         2463115354, 2890960118, 3754381045, 3772292547, 3026204575, 
         1531500379, 4171707962, 1627669634, 1737835135, 1394947285, 
         1731023377, 1752428686, 1328257473, 2930910693, 2262492339, 
         1523198376, 1154431900, 3573711117, 556193437, 2443893040, 
         3444494162, 867280687, 3777803737, 4231346991, 431764092, 
         3682741225, 3595093450, 1896798496, 681826155, 2022794548, 
         280466463, 3741642825, 3383359882, 1854507599, 3612982051, 
         3089885264, 664595337, 3565375216, 966812385, 2524453118, 
         3186487976, 1359487277, 3211528476, 2950142621, 1935822779, 
         2764214633, 3303951984, 2555220569, 2350118630, 243199986, 
         3528913460, 2227615265, 1861938964, 3004142784, 3348006883, 
         2078316217, 1570597241, 780929236, 4058970335, 989077872, 
         3950516887, 1238207843, 2207164426, 1142033690, 1951216287, 
         3118545022, 3586220385, 3800842162, 683790855, 109423408, 
         1913584464, 1822164246, 559632475, 4101272136, 1532882986, 
         2779669210, 1994461731, 3784029347, 321435849, 1695970160, 
         500020381, 4096091322, 1242733582, 3332184856, 3560185547, 
         3765561074, 503837295, 1009313318, 3199192604, 1982974190, 
         2498346649, 2991399590, 1072716917, 4038980628, 2319112208, 
         325138611, 2355869822, 3324778409, 4075430619, 4011440727, 
         868798155, 2233937620, 2276091735, 1803895726, 322802913, 
         673021935, 1022332084, 187322109, 3185919597, 941576508, 
         1017516943, 449311091, 189200297, 248390814, 345179104, 
         509091281, 1787176039, 1007708766, 2961423591, 311747228, 
         4039579591, 2977999004, 1110355357, 3172630153, 2774306794, 
         1159871551, 3265448926, 2381612499, 1672169156, 3290754029, 
         1576902188, 1086748660, 1658241454, 3257659233, 69569123, 
         500652046, 353767264, 2604495676, 4208105191, 3373137407, 
         2525837434, 3188137547, 2888631086, 1116449957, 3799312015, 
         2025249313, 1866033266, 481344586, 1531095302, 3385076871, 
         40802116, 2680185404, 3489239212, 2012774321, 3161712593, 
         600482491, 1022791897, 1922789768, 3964513165, 688293986, 
         3887206068, 1924756493, 4207374666, 789902070, 1494558112, 
         3757397106, 1694091112, 1836807147, 1255842677, 1936429840, 
         808221251, 4245861229, 2169354804, 2240277629, 2981096296, 
         443841330, 3742647218, 2460120785, 899519327, 1082341384, 
         1703657382, 962031418, 4286613465, 1161338572, 47937737, 
         1614751701, 1971351299, 536109802, 4291948196, 153855823, 
         3270232836, 3834053275, 412259492, 188586014, 1218914387, 
         1253362460, 2526310298, 1404296898, 1904150669, 968161928, 
         2513663880, 2070900444, 2824164085, 2623894843, 460973214, 
         2911868793, 1822046676, 1843445675, 4186829429, 753646084, 
         38593589, 659518924, 2521410975, 3896347975 ]
      </state>
      <set_pos>592</set_pos>
   </prng>
   <output prefix='simulation'>
      <properties shape='(6)' stride='10'>
       [ step, time{picosecond}, potential{electronvolt}, conserved, temperature{kelvin}, 
         ensemble_temperature{kelvin} ]
      </properties>
      <trajectory filename='pos' stride='10'>positions</trajectory>
      <trajectory filename='frc' stride='10'>forces</trajectory>
      <checkpoint stride='1000'>81</checkpoint>
   </output>
   <step>80000</step>
   <total_steps>80000</total_steps>
   <total_time>  2.50000000e+05</total_time>
   <ffsocket mode='unix' name='driver-dftb'>
      <address>dftb-nvt-bII</address>
   </ffsocket>
   <ffsocket mode='unix' name='driver-gap'>
      <address>gapd-nvt-bII</address>
   </ffsocket>
   <system>
      <forces>
         <force forcefield='driver-dftb'>
         </force>
         <force forcefield='driver-gap'>
         </force>
      </forces>
      <ensemble>
         <temperature>  3.16681520e-04</temperature>
         <eens>  1.21397702e+01</eens>
         <hamiltonian_weights shape='(2)'> [   1.00000000e+00,   1.00000000e+00 ] </hamiltonian_weights>
         <time>  1.65365492e+06</time>
      </ensemble>
      <motion mode='dynamics'>
         <dynamics mode='nvt'>
            <thermostat mode='langevin'>
               <ethermo> -2.35955827e+01</ethermo>
               <tau>  4.13413730e+03</tau>
            </thermostat>
            <timestep>  2.06706865e+01</timestep>
            <nmts shape='(1)'> [ 1 ] </nmts>
         </dynamics>
      </motion>
      <beads natoms='24' nbeads='32'>
         <q shape='(32, 72)'>
          [   3.11019437e+00,   1.02544553e+01,   1.21685857e+01,  -5.84843595e-01,   4.82692511e+00, 
              8.56263106e+00,   2.11968667e+00,   3.96830576e-02,   1.48818997e+00,   6.18305486e+00, 
              5.96121782e+00,   4.97797936e+00,   1.39482910e+00,   9.84155473e+00,   1.12793258e+01, 
              8.06345449e-01,   4.56822263e+00,   9.98053464e+00,   3.71918095e+00,   2.34427570e-01, 
              2.66060624e+00,   5.03925090e+00,   6.32867243e+00,   3.34300369e+00,   4.85323351e+00, 
              8.30037391e+00,   1.19342108e+01,  -2.76018057e+00,   3.23240703e+00,   8.35566780e+00, 
              4.03194355e-01,   2.02801196e+00,   1.49605952e+00,   8.26244507e+00,   7.52999109e+00, 
              5.34907977e+00,   4.10130223e+00,   6.76154180e+00,   1.07182059e+01,  -3.00994159e+00, 
              1.59610907e+00,   9.34394440e+00,   3.13443214e-02,   3.41097831e+00,   2.88509288e+00, 
              8.78444305e+00,   8.93462345e+00,   4.23417030e+00,   8.48399574e+00,   1.85205615e+00, 
              1.35341251e-01,  -3.10660610e-01,   6.96645891e+00,   7.03587553e+00,  -3.55437179e+00, 
              8.20158336e+00,   1.34670274e+01,   5.91400406e+00,   3.76932458e+00,   6.41823567e+00, 
              7.02921957e+00,   3.33586356e+00,   3.78641531e-01,   1.19217960e+00,   8.34210005e+00, 
              7.26867107e+00,  -2.17070508e+00,   6.83323685e+00,   1.38166487e+01,   4.49794956e+00, 
              2.72786932e+00,   5.98557568e+00,   3.09265752e+00,   1.02062655e+01,   1.21267362e+01, 
             -5.45720628e-01,   4.82610348e+00,   8.55772773e+00,   1.99756374e+00,   5.14711987e-02, 
              1.46475642e+00,   6.17311426e+00,   5.96444488e+00,   4.97181982e+00,   1.33601869e+00, 
              1.00504954e+01,   1.11673606e+01,   9.33226103e-01,   4.50365124e+00,   1.00736105e+01, 
              3.64621435e+00,   1.44063316e-01,   2.74013179e+00,   4.84803270e+00,   6.33447552e+00, 
              3.57183462e+00,   4.89435155e+00,   8.29972638e+00,   1.18746702e+01,  -2.76731445e+00, 
              3.09748653e+00,   8.39554370e+00,   2.82891764e-01,   1.98219086e+00,   1.55515458e+00, 
              8.38319734e+00,   7.51231125e+00,   5.39126220e+00,   4.05451891e+00,   6.84112064e+00, 
              1.05048017e+01,  -3.08983773e+00,   1.29268520e+00,   9.17057922e+00,  -2.70547261e-02, 
              3.50336660e+00,   3.01379012e+00,   8.44321299e+00,   9.02576719e+00,   4.07445685e+00, 
              8.43205195e+00,   1.73339797e+00,   1.45709716e-01,  -2.44778364e-01,   6.99925055e+00, 
              7.08028795e+00,  -3.59981493e+00,   8.16638078e+00,   1.35830385e+01,   5.89489261e+00, 
              3.73447942e+00,   6.37869507e+00,   7.03104213e+00,   3.29033902e+00,   5.22973134e-01, 
              1.23275241e+00,   8.36055478e+00,   7.23679548e+00,  -2.12305863e+00,   6.76872450e+00, 
              1.35871574e+01,   4.42428931e+00,   2.49901651e+00,   6.20404198e+00,   3.06552620e+00, 
              1.02112172e+01,   1.20904797e+01,  -5.31213346e-01,   4.74260270e+00,   8.54423629e+00, 
              2.05884390e+00,   7.59195500e-02,   1.42811687e+00,   6.13984856e+00,   5.88996888e+00, 
              4.93708946e+00,   1.50134661e+00,   1.02148737e+01,   1.09142472e+01,   7.18357418e-01, 
              4.06209301e+00,   9.76553328e+00,   3.72092424e+00,   1.74581215e-01,   2.77637705e+00, 
              4.54477060e+00,   6.00921413e+00,   3.54656975e+00,   4.78603727e+00,   8.27063733e+00, 
              1.18492448e+01,  -2.73129044e+00,   3.16482617e+00,   8.31947187e+00,   3.25752557e-01, 
              2.08543543e+00,   1.51895782e+00,   8.33040050e+00,   7.53105850e+00,   5.31250602e+00, 
              4.33304707e+00,   6.80440536e+00,   1.07537930e+01,  -3.08554446e+00,   1.31367780e+00, 
              9.30406192e+00,   9.06594158e-02,   3.32564688e+00,   3.02023513e+00,   8.68028052e+00, 
              8.97075684e+00,   4.05101041e+00,   8.39415330e+00,   1.75894479e+00,   1.34780120e-01, 
             -2.73137848e-01,   6.98328440e+00,   7.10669696e+00,  -3.54247721e+00,   8.27806453e+00, 
              1.34925866e+01,   5.92178152e+00,   3.80410235e+00,   6.41206454e+00,   7.01109173e+00, 
              3.20641918e+00,   1.28221310e-01,   1.29717279e+00,   8.44529802e+00,   7.29220626e+00, 
             -2.06062317e+00,   6.84881736e+00,   1.37486867e+01,   4.22059630e+00,   2.67338319e+00, 
              6.32754290e+00,   3.00296381e+00,   1.02118073e+01,   1.21121935e+01,  -6.07872160e-01, 
              4.75406829e+00,   8.54837343e+00,   1.99611851e+00,   1.85506281e-02,   1.39931746e+00, 
              6.23720619e+00,   5.87699911e+00,   4.94064902e+00,   1.38907164e+00,   1.00168094e+01, 
              1.09473968e+01,   1.06992298e+00,   4.27163930e+00,   9.77746925e+00,   3.74753872e+00, 
             -1.14653067e-01,   2.59057570e+00,   4.68439338e+00,   6.02571747e+00,   3.68147507e+00, 
              4.80207302e+00,   8.24683640e+00,   1.18418910e+01,  -2.80178141e+00,   3.08979082e+00, 
              8.36035726e+00,   2.78995466e-01,   2.12276678e+00,   1.45155724e+00,   8.38144872e+00, 
              7.45432138e+00,   5.25418721e+00,   4.10316638e+00,   6.66408775e+00,   1.05821271e+01, 
             -2.80248971e+00,   1.34659369e+00,   9.52770442e+00,   3.90343782e-01,   3.24612655e+00, 
              2.96417207e+00,   8.66006431e+00,   9.16653203e+00,   4.14768668e+00,   8.44071589e+00, 
              1.80481722e+00,   2.38273658e-01,  -2.56634000e-01,   6.82615344e+00,   7.11230411e+00, 
             -3.52809338e+00,   8.28844318e+00,   1.34142409e+01,   5.93159445e+00,   3.80125202e+00, 
              6.33941158e+00,   7.18835974e+00,   3.43469287e+00,   1.73278385e-01,   1.54791130e+00, 
              7.97030227e+00,   7.21265797e+00,  -2.08154856e+00,   6.74211965e+00,   1.35741778e+01, 
              4.18889065e+00,   2.66666658e+00,   6.37325858e+00,   2.98356779e+00,   1.02068757e+01, 
              1.20803711e+01,  -6.29432785e-01,   4.73048969e+00,   8.58625290e+00,   1.89235099e+00, 
             -2.45083509e-02,   1.49044181e+00,   6.26096237e+00,   5.92101028e+00,   5.02026466e+00, 
              1.08958971e+00,   9.94741841e+00,   1.07818746e+01,   9.99897811e-01,   4.27453981e+00, 
              9.74930949e+00,   3.52488948e+00,  -2.16628337e-01,   2.71906694e+00,   4.56477837e+00, 
              6.37462272e+00,   3.69201517e+00,   4.83094006e+00,   8.30632169e+00,   1.18547124e+01, 
             -2.75814852e+00,   3.06225941e+00,   8.30588698e+00,   3.13522621e-01,   2.07113400e+00, 
              1.45372022e+00,   8.32120699e+00,   7.40019508e+00,   5.39214097e+00,   4.54475665e+00, 
              6.55702560e+00,   1.06880678e+01,  -2.78485819e+00,   1.38375955e+00,   9.61256261e+00, 
              1.57857242e-01,   3.30929515e+00,   2.98718130e+00,   8.84813004e+00,   8.98777548e+00, 
              4.36963790e+00,   8.42525816e+00,   1.78879044e+00,   2.14605552e-01,  -2.80290688e-01, 
              6.78244657e+00,   7.14462568e+00,  -3.48523978e+00,   8.32750881e+00,   1.34221121e+01, 
              5.92725608e+00,   3.80845083e+00,   6.32491969e+00,   7.23480330e+00,   3.60949964e+00, 
             -9.54338336e-03,   1.73481047e+00,   7.79719205e+00,   7.49118543e+00,  -1.97782537e+00, 
              6.80944252e+00,   1.32305647e+01,   4.22363760e+00,   2.85633128e+00,   6.58366299e+00, 
              2.96644856e+00,   1.01610378e+01,   1.20982042e+01,  -6.18454345e-01,   4.72531895e+00, 
              8.69297918e+00,   1.87013766e+00,   2.63648668e-02,   1.54402759e+00,   6.29278421e+00, 
              5.93192089e+00,   4.97821487e+00,   1.14613368e+00,   9.84603417e+00,   1.09615912e+01, 
              1.10507122e+00,   4.36119320e+00,   9.96346168e+00,   3.66538857e+00,  -3.08961088e-01, 
              2.63602482e+00,   4.67884593e+00,   6.36842751e+00,   3.67159937e+00,   4.89392252e+00, 
              8.23133610e+00,   1.18263815e+01,  -2.73390612e+00,   3.15897536e+00,   8.33609585e+00, 
              3.32841170e-01,   2.02045662e+00,   1.43310840e+00,   8.32986205e+00,   7.43764856e+00, 
              5.40276919e+00,   4.73729140e+00,   6.57391608e+00,   1.06652653e+01,  -2.92615032e+00, 
              1.63263347e+00,   9.66326591e+00,   5.16636004e-01,   3.19675766e+00,   3.09756137e+00, 
              8.87412230e+00,   9.12841542e+00,   4.26124804e+00,   8.51184874e+00,   1.78914954e+00, 
              1.92557667e-01,  -2.49714442e-01,   6.82849160e+00,   7.14253928e+00,  -3.33579517e+00, 
              8.28161098e+00,   1.35148910e+01,   5.88448552e+00,   3.77011626e+00,   6.29356497e+00, 
              7.32226642e+00,   3.36579692e+00,   2.82885333e-02,   1.48008797e+00,   7.62830565e+00, 
              7.57053218e+00,  -2.09467905e+00,   6.93066437e+00,   1.32603786e+01,   4.37706109e+00, 
              2.82452367e+00,   6.21344215e+00,   2.91760448e+00,   1.01846822e+01,   1.20852176e+01, 
             -7.02207629e-01,   4.72176385e+00,   8.65887067e+00,   1.97178152e+00,  -1.97190798e-02, 
              1.56759385e+00,   6.34476582e+00,   5.87149875e+00,   5.01647162e+00,   1.48597830e+00, 
              1.00358721e+01,   1.07904592e+01,   9.24195216e-01,   4.54539859e+00,   1.00464781e+01, 
              3.52859176e+00,  -2.70124949e-01,   2.79638678e+00,   4.84140774e+00,   6.60774133e+00, 
              3.59065592e+00,   4.92906152e+00,   8.33320759e+00,   1.19029188e+01,  -2.72348458e+00, 
              3.17464549e+00,   8.36048204e+00,   3.77149365e-01,   1.97659337e+00,   1.47296288e+00, 
              8.31434930e+00,   7.44747267e+00,   5.38051296e+00,   4.48948778e+00,   6.78286230e+00, 
              1.04605998e+01,  -3.14441302e+00,   1.62367377e+00,   9.48864453e+00,   6.59317472e-01, 
              3.07737302e+00,   2.97912807e+00,   8.68390765e+00,   9.23696064e+00,   4.23571638e+00, 
              8.58027297e+00,   1.79874900e+00,   1.35988484e-01,  -2.84475859e-01,   6.80402938e+00, 
              7.05766196e+00,  -3.35353338e+00,   8.30114082e+00,   1.34887801e+01,   5.92715221e+00, 
              3.71747409e+00,   6.33333449e+00,   7.16016836e+00,   3.68280295e+00,   4.73085767e-01, 
              1.75573378e+00,   7.64509642e+00,   7.29016860e+00,  -1.78359103e+00,   6.77488297e+00, 
              1.33463672e+01,   4.24226688e+00,   2.57811235e+00,   6.25538293e+00,   2.97213421e+00, 
              1.01152056e+01,   1.22325726e+01,  -7.73680594e-01,   4.69682355e+00,   8.60454252e+00, 
              2.00757906e+00,   2.05646028e-04,   1.63473098e+00,   6.16442435e+00,   5.85995514e+00, 
              4.99115441e+00,   1.41790430e+00,   9.90770200e+00,   1.08441110e+01,   5.85493821e-01, 
              4.50578888e+00,   1.02777560e+01,   3.75846504e+00,  -3.88263111e-02,   2.69099807e+00, 
              4.89694238e+00,   6.84065629e+00,   3.63106408e+00,   4.94211775e+00,   8.22105071e+00, 
              1.19188440e+01,  -2.77933964e+00,   3.10306656e+00,   8.38741366e+00,   3.61878763e-01, 
              2.01425822e+00,   1.53849934e+00,   8.28223364e+00,   7.48189730e+00,   5.37696213e+00, 
              4.71962059e+00,   6.99237448e+00,   1.03303342e+01,  -3.14856478e+00,   1.58608465e+00, 
              9.71206877e+00,   7.34392776e-01,   3.46635817e+00,   2.85336224e+00,   8.39529418e+00, 
              9.14042130e+00,   3.92765085e+00,   8.51619870e+00,   1.83776459e+00,   3.76117629e-02, 
             -2.49138322e-01,   6.83448997e+00,   7.01406180e+00,  -3.32688910e+00,   8.25429777e+00, 
              1.34305565e+01,   5.86260089e+00,   3.68875733e+00,   6.42165224e+00,   7.12543309e+00, 
              3.41440825e+00,   5.63584997e-01,   1.67436722e+00,   7.82932703e+00,   7.29072962e+00, 
             -1.64079051e+00,   6.78465870e+00,   1.35828626e+01,   4.08996967e+00,   2.49373945e+00, 
              6.24783275e+00,   3.05193347e+00,   1.00544728e+01,   1.22122044e+01,  -7.63430668e-01, 
              4.73610137e+00,   8.63669325e+00,   2.07535673e+00,  -1.20688890e-01,   1.60739632e+00, 
              6.16738563e+00,   5.94895334e+00,   4.94472872e+00,   1.21226259e+00,   9.91922342e+00, 
              1.10429498e+01,   4.96074446e-01,   4.60953958e+00,   1.04394696e+01,   3.81393070e+00, 
             -3.39303880e-01,   2.52670500e+00,   4.66033310e+00,   6.83019931e+00,   3.78022977e+00, 
              4.95125137e+00,   8.10166668e+00,   1.19400692e+01,  -2.82159491e+00,   3.11737851e+00, 
              8.33856973e+00,   3.90131756e-01,   1.92146748e+00,   1.44128069e+00,   8.30019833e+00, 
              7.51378978e+00,   5.38554166e+00,   4.63404235e+00,   6.82230877e+00,   1.04452024e+01, 
             -3.07879159e+00,   1.56058563e+00,   9.64568918e+00,   6.39741353e-01,   3.49181243e+00, 
              2.74744450e+00,   8.46354084e+00,   9.00370511e+00,   4.13194107e+00,   8.44517631e+00, 
              1.83439661e+00,   6.33886723e-02,  -1.84030390e-01,   6.74643239e+00,   7.05203804e+00, 
             -3.29595654e+00,   8.23182608e+00,   1.34637893e+01,   5.94109770e+00,   3.71976721e+00, 
              6.49039333e+00,   6.87037617e+00,   3.21376695e+00,   6.49482620e-01,   1.42831082e+00, 
              8.11622621e+00,   7.37682355e+00,  -1.73565092e+00,   6.69431425e+00,   1.32305456e+01, 
              4.31629974e+00,   2.58180142e+00,   6.13554913e+00,   3.08609410e+00,   1.00844140e+01, 
              1.21865959e+01,  -6.97512734e-01,   4.71110026e+00,   8.69125725e+00,   2.07313970e+00, 
             -4.86432375e-02,   1.47749360e+00,   6.17348109e+00,   6.07175460e+00,   5.00857363e+00, 
              1.30782756e+00,   1.00437965e+01,   1.11094940e+01,   5.46483788e-01,   4.53098578e+00, 
              1.05473073e+01,   3.80264248e+00,  -9.61712067e-02,   2.69910617e+00,   4.78772142e+00, 
              6.53996446e+00,   3.66289927e+00,   4.93069724e+00,   8.15361478e+00,   1.19961304e+01, 
             -2.65743337e+00,   3.21879611e+00,   8.34650557e+00,   4.56926592e-01,   1.89378250e+00, 
              1.42169025e+00,   8.33837969e+00,   7.59495170e+00,   5.39849244e+00,   4.48856177e+00, 
              6.76264975e+00,   1.03015745e+01,  -3.09483723e+00,   1.44541978e+00,   9.39153455e+00, 
              1.02232000e+00,   3.50950871e+00,   2.81721384e+00,   8.75331013e+00,   9.29633611e+00, 
              4.40939694e+00,   8.50478469e+00,   1.78011319e+00,   7.28414145e-02,  -1.29750443e-01, 
              6.73973026e+00,   7.06500556e+00,  -3.31411688e+00,   8.24082733e+00,   1.34614650e+01, 
              5.85842594e+00,   3.67405722e+00,   6.40460806e+00,   7.08601098e+00,   3.29391849e+00, 
              4.10117306e-01,   1.63640704e+00,   7.89743614e+00,   7.38236837e+00,  -1.82377026e+00, 
              6.80847387e+00,   1.32291751e+01,   4.05703111e+00,   2.49110551e+00,   6.03421412e+00, 
              3.02075985e+00,   1.00388738e+01,   1.21846059e+01,  -6.74367585e-01,   4.78986331e+00, 
              8.67467685e+00,   1.97323615e+00,  -2.46195855e-02,   1.50801705e+00,   6.24058770e+00, 
              6.03280708e+00,   4.98027893e+00,   1.39209698e+00,   1.01610687e+01,   1.11256114e+01, 
              6.83556093e-01,   4.34312204e+00,   1.00680036e+01,   3.88663918e+00,   7.79065271e-02, 
              2.64761674e+00,   4.72290348e+00,   6.53899085e+00,   3.61502178e+00,   5.06362806e+00, 
              8.26298248e+00,   1.18983678e+01,  -2.66575115e+00,   3.19349904e+00,   8.28350858e+00, 
              5.05630590e-01,   1.84939141e+00,   1.41319449e+00,   8.43353741e+00,   7.45934362e+00, 
              5.41837259e+00,   4.82400748e+00,   6.70866509e+00,   1.06645920e+01,  -3.02700194e+00, 
              1.20186749e+00,   9.07080837e+00,   9.07021281e-01,   3.47097028e+00,   2.73771338e+00, 
              8.71167293e+00,   9.37120039e+00,   4.57896324e+00,   8.43723657e+00,   1.93388250e+00, 
              1.52206783e-02,  -1.06530887e-01,   6.74759292e+00,   7.11688659e+00,  -3.30748173e+00, 
              8.34406222e+00,   1.34698734e+01,   5.90024342e+00,   3.63578061e+00,   6.35253207e+00, 
              6.87028363e+00,   3.34765214e+00,   3.47008908e-01,   1.59967691e+00,   7.88158013e+00, 
              7.52341949e+00,  -1.82613838e+00,   7.03907545e+00,   1.33548698e+01,   4.24795142e+00, 
              2.43577535e+00,   5.97191777e+00,   3.01000528e+00,   1.00166127e+01,   1.21795183e+01, 
             -5.88966008e-01,   4.82629292e+00,   8.66338772e+00,   2.07983569e+00,  -5.49536492e-02, 
              1.48834107e+00,   6.24625184e+00,   5.90533329e+00,   4.92855016e+00,   1.48210400e+00, 
              1.01620344e+01,   1.12087768e+01,   9.04453269e-01,   4.26830295e+00,   9.72278242e+00, 
              3.93177805e+00,   7.32806233e-02,   2.79167670e+00,   4.71275365e+00,   6.55323636e+00, 
              3.66307080e+00,   5.00806562e+00,   8.23970494e+00,   1.18933826e+01,  -2.62708581e+00, 
              3.12197190e+00,   8.31610645e+00,   5.03475927e-01,   1.97012506e+00,   1.44805627e+00, 
              8.37801574e+00,   7.47728039e+00,   5.44020908e+00,   4.77108330e+00,   6.84827863e+00, 
              1.05817571e+01,  -2.81235401e+00,   1.26596665e+00,   9.35672825e+00,   9.13132428e-01, 
              3.46665939e+00,   2.72870256e+00,   8.63731746e+00,   9.30851299e+00,   4.25936713e+00, 
              8.50086220e+00,   2.01791862e+00,  -6.14031735e-03,  -9.01003100e-02,   6.84485652e+00, 
              7.08472760e+00,  -3.35138661e+00,   8.32146361e+00,   1.34813139e+01,   5.88507268e+00, 
              3.63721394e+00,   6.35466744e+00,   6.96782384e+00,   3.55873884e+00,   1.50117672e-01, 
              1.64891058e+00,   7.85304806e+00,   7.21001653e+00,  -2.07989580e+00,   6.95554744e+00, 
              1.31404953e+01,   4.33345681e+00,   2.69011915e+00,   6.12917228e+00,   3.01963810e+00, 
              1.00372568e+01,   1.21577103e+01,  -5.70822463e-01,   4.73506584e+00,   8.72479412e+00, 
              2.04748596e+00,  -2.68564652e-02,   1.49993834e+00,   6.18915069e+00,   5.86209411e+00, 
              4.95130200e+00,   1.43016460e+00,   9.87133469e+00,   1.11312893e+01,   1.14943387e+00, 
              4.15131171e+00,   9.73751394e+00,   4.06030479e+00,   2.77665566e-01,   2.52130757e+00, 
              4.62888357e+00,   6.34325448e+00,   3.89638180e+00,   4.97692645e+00,   8.21959292e+00, 
              1.19236497e+01,  -2.67160980e+00,   3.12464100e+00,   8.31358905e+00,   5.47811057e-01, 
              1.88840337e+00,   1.56093327e+00,   8.30239410e+00,   7.50691223e+00,   5.46555764e+00, 
              5.02768149e+00,   6.53239155e+00,   1.05226757e+01,  -2.67167979e+00,   1.48679289e+00, 
              9.43438875e+00,   1.03736286e+00,   3.27809030e+00,   3.09038838e+00,   8.42010341e+00, 
              9.13292799e+00,   4.30089662e+00,   8.54475440e+00,   2.01091699e+00,   5.72801122e-03, 
             -1.26320334e-01,   6.88462914e+00,   7.05359470e+00,  -3.37916518e+00,   8.28869800e+00, 
              1.34158390e+01,   5.87299457e+00,   3.61590050e+00,   6.40772738e+00,   7.09107326e+00, 
              3.48715795e+00,   1.15762299e-01,   1.49616151e+00,   7.87951300e+00,   6.99053622e+00, 
             -1.80951502e+00,   7.02317587e+00,   1.33385199e+01,   4.35975198e+00,   2.24077110e+00, 
              6.01383471e+00,   3.02927579e+00,   1.00499755e+01,   1.21659922e+01,  -5.23679929e-01, 
              4.67644483e+00,   8.65995514e+00,   1.99741824e+00,  -1.07387476e-01,   1.50313528e+00, 
              6.17041666e+00,   5.92703211e+00,   4.97683766e+00,   1.30650207e+00,   9.75645913e+00, 
              1.09043751e+01,   1.04780323e+00,   3.78238327e+00,   9.70041908e+00,   3.54773784e+00, 