<simulation verbosity='high'>
   <prng>
      <seed>4441</seed>
      <state shape='(624)'>
       [ 2970683099, 3883190717, 2172568268, 635303633, 778643442, 
         2878365168, 218457042, 1626507603, 1028910406, 1330739212, 
         3241564451, 3188682458, 2130292538, 4273877840, 1329417063, 
         108759847, 3617915493, 3294687803, 2517943565, 3123495373, 
         2884729932, 2428100119, 640197128, 3860324272, 1806872661, 
         2888995968, 2643283637, 2536617566, 1501886089, 557723640, 
         328130053, 458081415, 1271536795, 3165237276, 307576056, 
         1686045511, 1358515390, 2693018332, 4236076097, 4046343281, 
         4256222626, 3377641997, 1195101415, 3912671885, 764626700, 
         721423321, 3082300520, 967848628, 2726959808, 4069874966, 
         1653679061, 424198929, 3576843284, 3818555792, 1472321603, 
         1047190066, 116464501, 4126433748, 643567067, 3209276532, 
         3902188197, 3026847435, 2329698400, 2838930452, 1986785407, 
         960013957, 3095459444, 4217425903, 408745117, 1028124689, 
         4038045848, 3863720405, 2330111930, 570557031, 466943247, 
         4146144942, 518422818, 1586305639, 3408154391, 2114481382, 
         158169580, 1873452404, 3900014258, 1908058027, 2342483310, 
         1248868333, 2090336238, 3124579659, 4096376202, 3402323976, 
         2049259731, 2793094777, 996624448, 222826664, 3585406869, 
         894744647, 4090382801, 754409496, 2748449086, 2674862670, 
         3952442064, 4118846634, 285671927, 2238983004, 4046712119, 
         2695062958, 3919740829, 566194476, 3439722995, 1279432133, 
         1073349593, 2626235400, 2987420663, 2855790703, 39349386, 
         2880706631, 1227393617, 2515911149, 1204469379, 1851305117, 
         45253360, 3306957271, 1158081471, 2971489318, 379818293, 
         1110924745, 3050707943, 1397248440, 900140681, 2601919674, 
         3952287974, 3584110016, 1216605778, 2202111656, 3772391287, 
         3430789577, 1842066096, 2326290084, 3558561242, 3426947103, 
         1785948036, 1385150015, 1591403804, 1683527270, 3010983510, 
         4162419753, 1994194410, 793897349, 3882045367, 3781622257, 
         147742297, 153727742, 781684547, 2901179075, 2803804140, 
         2277004036, 1731355770, 320143437, 351935353, 2342483837, 
         3336670885, 2448572025, 1379053058, 2259128936, 762160811, 
         3013089491, 2944550458, 3935190999, 759296993, 227693802, 
         2445368070, 4115887052, 538346683, 3543641770, 1524685779, 
         1934287788, 448906974, 2367031154, 2359882196, 3639049274, 
         1927756553, 1492071853, 4090401708, 2381491037, 1121609624, 
         2611502706, 524173260, 1055356790, 1390194503, 1833678509, 
         3475624663, 1103208767, 2906715254, 988336187, 1507818556, 
         2294309703, 509823907, 3372480832, 245433521, 3325637159, 
         353064506, 205502857, 1490028205, 295019535, 2160991411, 
         2207154594, 2863406990, 2220267695, 2952896110, 3416424017, 
         2525912712, 3440589077, 793245407, 886370578, 1181146027, 
         2894215933, 2253333098, 1000364524, 1961939491, 546366239, 
         327090566, 1443659631, 1842906299, 3663594893, 2970399965, 
         2903080291, 482581997, 3903570665, 2354562308, 1806118808, 
         3125130974, 4170262488, 123198354, 2749117356, 22884818, 
         3998206023, 2696270803, 3857648154, 530474743, 649527941, 
         429571285, 1877689136, 3957195894, 2276499576, 2266210208, 
         1607255824, 1811515233, 325520210, 1658096921, 134243071, 
         980076055, 50421292, 2751337661, 294071619, 4222517132, 
         1458921972, 2922206631, 425530746, 2650529418, 1464602970, 
         3598831056, 1977406265, 2781605439, 3625740747, 1650580311, 
         2319982157, 1411474101, 2119776836, 4098041425, 620888930, 
         2386204263, 2275346602, 2397598424, 3129865894, 131193524, 
         1941511921, 673022572, 1140100508, 715859910, 3232797009, 
         1912521406, 3697166953, 297762024, 2192976567, 1925228258, 
         127683776, 2914689763, 4206110743, 827849139, 2565204162, 
         3980118673, 3192578686, 3704544061, 2256600473, 3365822813, 
         1808397606, 3659567266, 1779463055, 3804822513, 4187935339, 
         3217349042, 13652989, 2167823056, 2881816375, 3677374360, 
         2929135612, 2398846868, 3391821095, 483713302, 537219310, 
         619849238, 3320478507, 2602569564, 3666912551, 1107963639, 
         1794487732, 1834929432, 1877083656, 3643101043, 1561042214, 
         1177178341, 1469091621, 2194812620, 355901054, 682815220, 
         3995946555, 3187701562, 443839246, 128075006, 2660316345, 
         3122536620, 4114917661, 765950676, 2929138589, 618230196, 
         2030968316, 2622305566, 2564147637, 3163718080, 1106555077, 
         3659057663, 626246990, 1984120599, 2296660464, 2765257930, 
         1031616253, 2291998879, 3139550780, 3483979484, 3696936658, 
         2668634721, 1003820507, 1100552901, 3707478263, 454738459, 
         116564474, 3624571445, 3044377636, 2410497510, 3225182717, 
         2015064335, 385338975, 452692648, 2188521818, 1766085224, 
         2208132701, 2279303105, 2747675488, 1235782239, 3383706784, 
         3857655550, 3993009201, 3627846355, 4225999383, 133764235, 
         2430355378, 3805698357, 1105672523, 1984888706, 2606358581, 
         3172144625, 3566249680, 2002353015, 2698428520, 1572064939, 
         3133196760, 2948674421, 260323317, 3983412991, 32697847, 
         3837545411, 3792236222, 3931731714, 1241021841, 3597740151, 
         3612480980, 2033157678, 1922008544, 3008072559, 2287894833, 
         2581024032, 4163058217, 1914687332, 2643641889, 1140187088, 
         480060036, 189586970, 2482452858, 3575199897, 2538362266, 
         1995344144, 3258921726, 2100949326, 589092830, 572356087, 
         2952419660, 54398871, 2330175956, 3457622865, 1413163371, 
         3988279148, 4045780123, 1253928982, 1227356022, 2862662430, 
         3352980222, 500080125, 930250740, 3059447532, 1591809631, 
         1637563932, 207649600, 519757976, 758648776, 673625005, 
         1648697097, 3404027925, 3888563994, 315985320, 4045163479, 
         3654114231, 1224727671, 2496096121, 1580572186, 276894580, 
         3314142687, 802421359, 2015331636, 3351054147, 594750202, 
         571021561, 2787748143, 2907052921, 2924923394, 1250191752, 
         2171696816, 3214923914, 2317040914, 1020217879, 1593265317, 
         1402682520, 208424496, 1914725906, 52619467, 3769711497, 
         2857881907, 490840425, 1958726100, 2531785025, 1035910906, 
         3217525717, 3968331212, 4130727077, 3570117790, 3085300090, 
         3113524678, 315227543, 1147803473, 3244022178, 1804762187, 
         3916662279, 703140159, 2038758118, 167994465, 3664845606, 
         4212934428, 3022306407, 2993829256, 3277413061, 732010034, 
         1107744794, 961792395, 1296646589, 3724641876, 524161301, 
         2990401683, 2937992873, 2063383023, 2759810067, 644293008, 
         1038310653, 524970173, 146125218, 4082361101, 1500977933, 
         3043876620, 3615143535, 160739827, 1940123944, 3940878578, 
         708073166, 3286350658, 3290058937, 919569590, 3915963703, 
         3854171541, 2598593791, 1736545088, 784836873, 2905293363, 
         2757211606, 4226780201, 3177987089, 615611231, 1406796669, 
         3076222902, 1145506967, 698026605, 623097382, 1472702924, 
         338242412, 50056689, 1825135640, 2535115461, 4075796740, 
         1897839856, 2780487490, 1662692338, 3783223995, 3384038349, 
         391886308, 2949088605, 2644999375, 3823759892, 73758204, 
         3246703838, 1635973203, 1522438880, 2576826890, 2273170176, 
         619545399, 3995837462, 709656197, 3634104512, 3070470628, 
         3026302945, 2032258432, 4168811265, 3331517456, 4116233063, 
         339884360, 14763325, 758839263, 736336225, 3973797337, 
         1626312670, 955827173, 3043478804, 2915352603, 3807890107, 
         171977895, 1963738999, 3378228199, 2377062859, 3900953903, 
         3512787787, 4168683559, 1548843677, 3032260059, 563489279, 
         3263512719, 2372079375, 3807155351, 3955302654, 4193094966, 
         149894608, 2317317358, 3843614406, 2460162889, 23515970, 
         2594235362, 2614571052, 903654834, 1291052563, 3449696281, 
         571844952, 233567852, 2089674873, 2607525605, 3077490247, 
         3788973769, 64145128, 2689776308, 421286818, 3184233301, 
         2469037767, 1201155484, 1524052093, 187737838, 2788689703, 
         3583665855, 2868233766, 1254019407, 1219345572, 741396675, 
         2283989466, 1240778543, 3764652963, 3549381299, 3277231420, 
         3103512426, 2525395662, 2136820129, 3098523036 ]
      </state>
      <set_pos>320</set_pos>
   </prng>
   <output prefix='simulation'>
      <properties shape='(6)' stride='10'>
       [ step, time{picosecond}, potential{electronvolt}, conserved, temperature{kelvin}, 
         ensemble_temperature{kelvin} ]
      </properties>
      <trajectory filename='pos' stride='10'>positions</trajectory>
      <trajectory filename='frc' stride='10'>forces</trajectory>
      <checkpoint stride='1000'>1</checkpoint>
   </output>
   <total_steps>80000</total_steps>
   <total_time>  2.50000000e+05</total_time>
   <ffsocket mode='unix' name='driver-dftb'>
      <address>dftb-nvt-gg</address>
   </ffsocket>
   <ffsocket mode='unix' name='driver-gap'>
      <address>gapd-nvt-gg</address>
   </ffsocket>
   <system>
      <forces>
         <force forcefield='driver-dftb'>
         </force>
         <force forcefield='driver-gap'>
         </force>
      </forces>
      <ensemble>
         <temperature>  9.50044560e-04</temperature>
         <eens>  5.83152446e-04</eens>
         <hamiltonian_weights shape='(2)'> [   1.00000000e+00,   1.00000000e+00 ] </hamiltonian_weights>
      </ensemble>
      <motion mode='dynamics'>
         <dynamics mode='nvt'>
            <thermostat mode='langevin'>
               <tau>  4.13413730e+03</tau>
            </thermostat>
            <timestep>  2.06706865e+01</timestep>
            <nmts shape='(1)'> [ 1 ] </nmts>
         </dynamics>
      </motion>
      <beads natoms='30' nbeads='4'>
         <q shape='(4, 90)'>
          [   9.65780428e+00,   6.33564690e+00,   8.34820520e-02,   2.78611768e+00,   5.19608537e+00, 
              3.51976604e+00,   6.57925149e-01,   1.11613460e+01,   6.95604398e+00,   1.13191003e+01, 
              2.47741202e+00,   1.02104736e+01,   5.29680777e+00,   8.56391743e+00,   3.33791770e+00, 
              3.03688433e+00,   3.05203993e-01,   6.77419564e+00,   1.05548951e+01,   4.49686782e+00, 
              9.23104744e+00,   3.92998778e+00,   6.89237911e+00,   2.35849156e+00,   5.16787176e+00, 
             -4.27170695e-02,   5.79476950e+00,  -2.29705656e+00,   4.79818464e+00,   6.38923953e+00, 
              3.54410571e+00,   6.95814158e+00,   9.82551747e+00,  -1.24704915e+00,   1.09367520e+01, 
              2.95296159e+00,   1.12982188e+01,   2.39207199e+00,   5.12382224e+00,   5.38114625e+00, 
              8.58852167e+00,   8.56010019e+00,   2.97340843e+00,   3.65953018e-01,   1.68753864e+00, 
             -7.12353040e-01,   6.05315175e+00,   5.99540172e+00,   1.66492239e+00,   7.70305271e+00, 
              9.43167966e+00,  -9.52569353e-01,   8.93687377e+00,   2.55912378e+00,   9.10301849e+00, 
              5.63809231e+00,   5.59546008e+00,   3.66759931e+00,   5.06439036e+00,   9.03173803e+00, 
              6.88215569e+00,   6.44041332e-01,   2.15918214e+00,   1.13137335e+01,   2.58344455e+00, 
              3.14953090e+00,   5.20765049e+00,   8.50626189e+00,   6.58580884e+00,   3.13138953e+00, 
              2.56832674e-01,   1.00220868e+01,  -8.37755264e-02,   1.67252287e+00,   5.69353687e+00, 
              5.14436357e+00,   1.04377131e+01,   9.12981481e+00,  -5.06059201e+00,   1.05828252e+01, 
              2.25725893e+00,   9.86792293e+00,   1.12607267e+00,   5.62348472e+00,   7.19267548e+00, 
              7.98284555e+00,   9.05976266e+00,   2.59217509e+00,   2.23762468e+00,   2.18720678e+00, 
              9.65780428e+00,   6.33564690e+00,   8.34820520e-02,   2.78611768e+00,   5.19608537e+00, 
              3.51976604e+00,   6.57925149e-01,   1.11613460e+01,   6.95604398e+00,   1.13191003e+01, 
              2.47741202e+00,   1.02104736e+01,   5.29680777e+00,   8.56391743e+00,   3.33791770e+00, 
              3.03688433e+00,   3.05203993e-01,   6.77419564e+00,   1.05548951e+01,   4.49686782e+00, 
              9.23104744e+00,   3.92998778e+00,   6.89237911e+00,   2.35849156e+00,   5.16787176e+00, 
             -4.27170695e-02,   5.79476950e+00,  -2.29705656e+00,   4.79818464e+00,   6.38923953e+00, 
              3.54410571e+00,   6.95814158e+00,   9.82551747e+00,  -1.24704915e+00,   1.09367520e+01, 
              2.95296159e+00,   1.12982188e+01,   2.39207199e+00,   5.12382224e+00,   5.38114625e+00, 
              8.58852167e+00,   8.56010019e+00,   2.97340843e+00,   3.65953018e-01,   1.68753864e+00, 
             -7.12353040e-01,   6.05315175e+00,   5.99540172e+00,   1.66492239e+00,   7.70305271e+00, 
              9.43167966e+00,  -9.52569353e-01,   8.93687377e+00,   2.55912378e+00,   9.10301849e+00, 
              5.63809231e+00,   5.59546008e+00,   3.66759931e+00,   5.06439036e+00,   9.03173803e+00, 
              6.88215569e+00,   6.44041332e-01,   2.15918214e+00,   1.13137335e+01,   2.58344455e+00, 
              3.14953090e+00,   5.20765049e+00,   8.50626189e+00,   6.58580884e+00,   3.13138953e+00, 
              2.56832674e-01,   1.00220868e+01,  -8.37755264e-02,   1.67252287e+00,   5.69353687e+00, 
              5.14436357e+00,   1.04377131e+01,   9.12981481e+00,  -5.06059201e+00,   1.05828252e+01, 
              2.25725893e+00,   9.86792293e+00,   1.12607267e+00,   5.62348472e+00,   7.19267548e+00, 
              7.98284555e+00,   9.05976266e+00,   2.59217509e+00,   2.23762468e+00,   2.18720678e+00, 
              9.65780428e+00,   6.33564690e+00,   8.34820520e-02,   2.78611768e+00,   5.19608537e+00, 
              3.51976604e+00,   6.57925149e-01,   1.11613460e+01,   6.95604398e+00,   1.13191003e+01, 
              2.47741202e+00,   1.02104736e+01,   5.29680777e+00,   8.56391743e+00,   3.33791770e+00, 
              3.03688433e+00,   3.05203993e-01,   6.77419564e+00,   1.05548951e+01,   4.49686782e+00, 
              9.23104744e+00,   3.92998778e+00,   6.89237911e+00,   2.35849156e+00,   5.16787176e+00, 
             -4.27170695e-02,   5.79476950e+00,  -2.29705656e+00,   4.79818464e+00,   6.38923953e+00, 
              3.54410571e+00,   6.95814158e+00,   9.82551747e+00,  -1.24704915e+00,   1.09367520e+01, 
              2.95296159e+00,   1.12982188e+01,   2.39207199e+00,   5.12382224e+00,   5.38114625e+00, 
              8.58852167e+00,   8.56010019e+00,   2.97340843e+00,   3.65953018e-01,   1.68753864e+00, 
             -7.12353040e-01,   6.05315175e+00,   5.99540172e+00,   1.66492239e+00,   7.70305271e+00, 
              9.43167966e+00,  -9.52569353e-01,   8.93687377e+00,   2.55912378e+00,   9.10301849e+00, 
              5.63809231e+00,   5.59546008e+00,   3.66759931e+00,   5.06439036e+00,   9.03173803e+00, 
              6.88215569e+00,   6.44041332e-01,   2.15918214e+00,   1.13137335e+01,   2.58344455e+00, 
              3.14953090e+00,   5.20765049e+00,   8.50626189e+00,   6.58580884e+00,   3.13138953e+00, 
              2.56832674e-01,   1.00220868e+01,  -8.37755264e-02,   1.67252287e+00,   5.69353687e+00, 
              5.14436357e+00,   1.04377131e+01,   9.12981481e+00,  -5.06059201e+00,   1.05828252e+01, 
              2.25725893e+00,   9.86792293e+00,   1.12607267e+00,   5.62348472e+00,   7.19267548e+00, 
              7.98284555e+00,   9.05976266e+00,   2.59217509e+00,   2.23762468e+00,   2.18720678e+00, 
              9.65780428e+00,   6.33564690e+00,   8.34820520e-02,   2.78611768e+00,   5.19608537e+00, 
              3.51976604e+00,   6.57925149e-01,   1.11613460e+01,   6.95604398e+00,   1.13191003e+01, 
              2.47741202e+00,   1.02104736e+01,   5.29680777e+00,   8.56391743e+00,   3.33791770e+00, 
              3.03688433e+00,   3.05203993e-01,   6.77419564e+00,   1.05548951e+01,   4.49686782e+00, 
              9.23104744e+00,   3.92998778e+00,   6.89237911e+00,   2.35849156e+00,   5.16787176e+00, 
             -4.27170695e-02,   5.79476950e+00,  -2.29705656e+00,   4.79818464e+00,   6.38923953e+00, 
              3.54410571e+00,   6.95814158e+00,   9.82551747e+00,  -1.24704915e+00,   1.09367520e+01, 
              2.95296159e+00,   1.12982188e+01,   2.39207199e+00,   5.12382224e+00,   5.38114625e+00, 
              8.58852167e+00,   8.56010019e+00,   2.97340843e+00,   3.65953018e-01,   1.68753864e+00, 
             -7.12353040e-01,   6.05315175e+00,   5.99540172e+00,   1.66492239e+00,   7.70305271e+00, 
              9.43167966e+00,  -9.52569353e-01,   8.93687377e+00,   2.55912378e+00,   9.10301849e+00, 
              5.63809231e+00,   5.59546008e+00,   3.66759931e+00,   5.06439036e+00,   9.03173803e+00, 
              6.88215569e+00,   6.44041332e-01,   2.15918214e+00,   1.13137335e+01,   2.58344455e+00, 
              3.14953090e+00,   5.20765049e+00,   8.50626189e+00,   6.58580884e+00,   3.13138953e+00, 
              2.56832674e-01,   1.00220868e+01,  -8.37755264e-02,   1.67252287e+00,   5.69353687e+00, 
              5.14436357e+00,   1.04377131e+01,   9.12981481e+00,  -5.06059201e+00,   1.05828252e+01, 
              2.25725893e+00,   9.86792293e+00,   1.12607267e+00,   5.62348472e+00,   7.19267548e+00, 
              7.98284555e+00,   9.05976266e+00,   2.59217509e+00,   2.23762468e+00,   2.18720678e+00 ]
         </q>
         <p shape='(4, 90)'>
          [   5.13240804e-01,   2.64015972e+00,  -3.46234826e+00,   2.17601441e+00,   1.47270574e+00, 
             -2.27658663e+00,   2.89364414e+00,  -5.05769373e+00,  -3.12285910e+00,   2.33974598e+00, 
              2.51123045e-01,  -8.63697387e-01,  -3.85161448e-01,  -1.76525248e+00,  -1.78790370e+00, 
             -3.70211722e+00,   2.60256183e+00,   6.74983584e-01,   1.98091640e+00,  -4.21996017e-01, 
             -1.40431749e+00,   1.76304583e+00,  -2.19938668e+00,  -8.85564861e-01,  -1.05506314e+00, 
              1.44070480e+00,   1.29848247e+00,  -5.40543552e+00,   6.21049891e+00,  -8.01386666e-01, 
             -5.43139428e-01,  -2.06678238e+00,   8.41424662e-01,  -1.87350569e+00,  -1.21781682e-01, 
             -1.11441029e+00,   2.56098041e+00,   2.76135537e+00,   1.37339127e+00,  -1.69847906e+00, 
              1.79702892e+00,   1.31229521e+00,   1.03250512e+00,   2.08200833e+00,  -3.39335254e+00, 
              1.17396955e+00,  -9.92523979e-02,   7.10366573e-01,  -8.88322694e-01,  -5.53739395e-02, 
              4.72268156e-01,  -1.89969720e-01,   6.93134343e-01,   2.30748809e-01,  -1.14224468e-01, 
             -2.41573761e-01,   7.33510318e-01,  -6.17687679e-02,   2.84322356e-01,  -6.72896770e-01, 
              1.36047749e-01,   6.75634344e-01,  -6.66109500e-01,  -5.15635786e-01,  -6.66595514e-01, 
             -4.59852872e-01,  -9.69010733e-03,   5.37143694e-01,  -8.80679686e-02,   6.42555305e-02, 
             -3.09946175e-01,   1.20018780e+00,   4.67785703e-01,  -4.26269266e-01,   7.11193028e-01, 
             -3.53989340e-01,   8.74389955e-01,  -5.06647669e-02,   2.17338408e-01,  -5.01923079e-01, 
             -5.11040447e-01,   3.92684510e-01,  -1.49231904e+00,  -5.18756408e-02,   4.97269975e-01, 
             -4.12103303e-01,  -7.67144245e-01,   5.85926509e-01,   1.90437098e-01,  -6.37833922e-01, 
              1.67219390e-01,  -4.82329975e-01,   1.16087528e+00,  -6.57013367e-01,  -1.40954969e+00, 
             -6.91442646e-01,  -1.69721801e+00,  -4.32578783e-01,   7.18828790e-01,  -3.17452671e+00, 
             -1.11041547e+00,   4.10043534e+00,   1.10306881e+00,   2.20843050e+00,   1.30658766e+00, 
              4.73060297e+00,   1.00831164e+00,  -4.83805660e+00,  -2.38499059e+00,  -6.72274103e+00, 
              2.29181915e+00,  -1.01383485e+00,   3.00886718e+00,   1.42960808e+00,  -2.79044969e+00, 
             -2.69981374e+00,  -2.66496313e-01,  -2.71275456e+00,  -3.01480617e+00,   1.51486211e+00, 
             -1.11223421e+00,  -2.12077801e+00,   1.24942892e+00,   4.11378207e+00,   1.88250089e+00, 
              4.08622611e-01,  -5.71006909e+00,  -1.19456578e-01,   4.19704673e+00,   1.38179067e+00, 
             -1.21602723e+00,  -1.84279209e+00,   4.28155610e+00,  -4.35489865e+00,  -9.75667031e-01, 
             -5.56552400e-01,   4.29357474e-01,  -4.31948804e-02,   9.08125597e-01,  -3.40819652e-01, 
             -9.56378106e-02,   7.78299572e-01,   3.91810601e-01,   1.86494096e-01,  -3.11548820e-01, 
              3.01841630e-02,   9.82330742e-01,   6.63209798e-01,  -5.59154379e-01,  -1.00705530e+00, 
             -1.02475799e+00,  -3.02885259e-01,  -1.31116032e+00,  -2.15711979e-01,   2.31996413e-01, 
             -1.18117618e+00,   6.56575712e-01,   6.81289540e-01,   8.34493178e-01,   1.10033775e-01, 
              4.29490832e-01,   1.90716418e-01,   1.01280593e+00,   6.27013152e-01,   2.81370166e-01, 
              7.42800963e-01,   6.72108357e-01,   5.00153246e-01,   7.73969377e-01,   1.03514788e+00, 
              2.57685049e-02,   4.92591059e-01,   1.02650697e+00,  -8.48163326e-01,   7.90103006e-01, 
             -1.22338591e+00,   6.50904852e-01,   1.62549152e-01,   9.42271163e-01,   2.88898748e-01, 
              4.24879502e+00,  -1.97561015e+00,  -8.78016032e-01,  -1.27654458e+00,  -2.24683385e-01, 
             -3.76492391e+00,   1.81506206e-01,  -4.18631326e-01,  -2.05306683e+00,  -3.63698103e+00, 
              5.10333821e-02,   5.95247768e-01,  -9.38605178e-01,   1.19554125e+00,   3.15893134e+00, 
              1.02499842e+00,  -1.73650945e+00,   2.18950876e+00,   1.48903640e+00,  -1.73826732e+00, 
             -1.75748755e+00,   1.13432400e+00,   1.15138642e+00,   2.22022051e+00,  -1.39879109e+00, 
             -2.93305118e-02,  -3.60351872e-01,   1.08554272e+00,  -8.95954509e-01,   4.09510343e+00, 
              5.51881078e+00,   1.97385941e+00,   1.80707039e+00,   3.67439653e-01,   3.27510054e-01, 
              4.20863639e+00,  -2.18328038e+00,   9.17863697e-01,  -7.85137058e-01,  -1.01163155e+00, 
              1.79978267e+00,   2.03617783e+00,  -9.35529382e-01,   3.56067857e+00,  -3.41258318e-01, 
              6.27982067e-01,   9.79320471e-01,   2.53336455e-01,  -4.82368690e-01,  -1.92253488e-01, 
              4.20213028e-01,  -2.74083131e-01,   1.12306986e+00,  -8.25316540e-02,   6.56891014e-01, 
             -8.53780518e-01,   1.35983104e+00,  -1.18845689e+00,   3.27915837e-01,   3.23743674e-01, 
             -7.83722266e-02,   3.35467269e-01,   5.77434364e-01,   3.26745453e-01,   1.85861010e+00, 
              1.51383224e-01,   1.03151923e-01,  -1.17119874e+00,   1.42416592e-01,  -3.87331789e-01, 
             -1.05734209e-01,  -6.71923873e-01,  -4.25143374e-01,  -6.74289274e-01,   1.18422738e+00, 
              7.03072094e-01,   9.11560179e-01,  -1.02456401e-01,  -6.46622872e-01,   4.65854828e-01, 
             -8.27813146e-01,  -1.14225645e+00,  -5.73793228e-01,  -5.17074247e-01,  -4.74411798e-01, 
             -3.12672935e-02,  -9.11983673e-02,   4.52951557e-01,   1.17258515e+00,   6.36264236e-01, 
             -9.21406437e+00,   4.66712700e+00,  -3.24849275e+00,   9.21979595e-01,  -2.07174043e-01, 
             -2.40965704e+00,   5.70066859e-01,  -1.22123412e+00,  -1.32255383e-01,   5.30623100e+00, 
             -6.49067451e+00,  -2.44860450e+00,   5.35493475e-01,   2.59916902e+00,   4.98547956e+00, 
              3.16444467e+00,   1.16532874e-01,   1.07166954e+00,   1.67730103e+00,   3.58600716e-01, 
             -1.25113148e+00,   1.81076013e+00,  -1.36349996e-01,  -2.58620408e-01,  -1.34884055e+00, 
             -1.79668178e+00,   4.35904824e+00,   5.97412273e-01,   1.98089991e+00,  -1.90976567e+00, 
             -3.61325774e+00,  -2.17591082e+00,  -3.11108572e+00,  -2.28486905e+00,   1.69215472e+00, 
             -2.13339056e+00,  -9.41133410e-01,  -3.32859866e-02,  -2.67588952e+00,  -1.32916161e+00, 
              1.32568195e+00,  -1.96371839e+00,   1.60528228e+00,  -4.17748139e+00,   2.99911949e+00, 
             -6.78027903e-01,  -8.02544172e-01,   1.03057731e+00,  -1.34006066e-01,  -1.23795533e+00, 
             -4.61448324e-01,   2.34237256e-01,  -1.12383228e+00,  -6.60982893e-02,   8.96345028e-01, 
              5.31115795e-02,  -2.75896129e-01,  -4.55515263e-01,   2.07616401e-01,  -1.10369185e+00, 
              1.14725887e+00,   2.94065808e-01,   2.21407366e+00,  -1.15578744e+00,   2.33956113e-01, 
              5.94508651e-01,   1.78912603e-02,  -2.55956095e-04,  -4.05879003e-01,  -6.52298681e-02, 
             -4.92223355e-01,  -6.02456537e-01,  -1.55565394e-01,   8.20794140e-01,   6.97409185e-01, 
             -4.58333957e-01,   3.75133802e-02,  -1.33373672e+00,  -4.97180974e-01,   3.26753949e-01, 
              2.76283213e-02,   9.48112667e-02,   1.76998561e-01,  -9.40705139e-02,  -3.08179331e-01, 
              8.32543033e-01,  -6.67596740e-01,   1.11251069e+00,  -5.29256413e-01,  -3.11876494e-01 ]
         </p>
         <m shape='(30)'>
          [   2.91651223e+04,   2.91651223e+04,   2.91651223e+04,   2.91651223e+04,   2.91651223e+04, 
              2.91651223e+04,   2.18941669e+04,   2.18941669e+04,   2.18941669e+04,   2.18941669e+04, 
              2.18941669e+04,   2.18941669e+04,   2.55327253e+04,   2.55327253e+04,   2.55327253e+04, 
              1.83736223e+03,   1.83736223e+03,   1.83736223e+03,   1.83736223e+03,   1.83736223e+03, 
              1.83736223e+03,   1.83736223e+03,   1.83736223e+03,   1.83736223e+03,   1.83736223e+03, 
              1.83736223e+03,   1.83736223e+03,   1.83736223e+03,   1.83736223e+03,   1.83736223e+03 ]
         </m>
         <names shape='(30)'>
          [ O, O, O, O, O, 
            O, C, C, C, C, 
            C, C, N, N, N, 
            H, H, H, H, H, 
            H, H, H, H, H, 
            H, H, H, H, H ]
         </names>
      </beads>
      <cell shape='(3, 3)'>
       [   1.31018490e+01,  -6.55092450e+00,   6.31234017e-16,   0.00000000e+00,   1.13465341e+01, 
           1.09332939e-15,   0.00000000e+00,   0.00000000e+00,   1.03088338e+01 ]
      </cell>
   </system>
</simulation>
