 # File generated with Atomsk by local on 2022-02-10 10:49:45
 
          40  atoms
           4  atom types
 
      0.00000000       5.22300000  xlo xhi
      0.00000000      12.43500000  ylo yhi
      0.00000000       5.18862100  zlo zhi
      0.00000000      -2.00628500       0.00000000  xy xz yz
 
Masses
 
           1   14.00700000    # N 
           2   1.00800000    # H 
           3   12.01100000    # C 
           4   15.99900000    # O 
 
Atoms # atomic
 
         1    1        3.68086280       5.11948950       1.24890107
         2    1        3.15049470      11.33698950       1.34540943
         3    1       -0.46414780       7.31551050       3.93971993
         4    1        0.06622030       1.09801050       3.84321157
         5    2        4.00133246       4.95534750       0.22829932
         6    2        2.83002504      11.17284750       2.36601118
         7    2       -0.78461746       7.47965250       4.96032168
         8    2        0.38668996       1.26215250       2.82260982
         9    2        4.43166126       4.73524800       1.92497839
        10    2        2.39969624      10.95274800       0.66933211
        11    2       -1.21494627       7.69975200       3.26364261
        12    2        0.81701876       1.48225200       4.51928889
        13    2        3.55233920       6.18019500       1.41649353
        14    2        3.27901830      12.39769500       1.17781697
        15    2       -0.33562420       6.25480500       3.77212747
        16    2       -0.06230331       0.03730500       4.01080403
        17    3        2.37213699       4.40696400       1.48757764
        18    3        4.45922051      10.62446400       1.10673286
        19    3        0.84457801       8.02803600       3.70104336
        20    3       -1.24250551       1.81053600       4.08188814
        21    2        2.51697627       3.27040500       1.32776811
        22    2        4.31438123       9.48790500       1.26654239
        23    2        0.69973873       9.16459500       3.86085289
        24    2       -1.09766623       2.94709500       3.92207861
        25    2        1.58895410       4.77752700       0.72640694
        26    2        0.01940340      10.99502700       1.86790356
        27    2        1.62776090       7.65747300       4.46221406
        28    2        3.19731160       1.43997300       3.32071744
        29    3        1.84798279       4.66561200       2.94039152
        30    3        2.97708971      10.88311200       4.84253998
        31    3        1.36873221       7.76938800       2.24822948
        32    3        0.23962529       1.55188800       0.34608102
        33    4        2.72869508       5.04487950       3.82349481
        34    4        2.09637742      11.26237950       3.95943669
        35    4        0.48801992       7.39012050       1.36512619
        36    4        1.12033758       1.17262050       1.22918431
        37    4        0.60384636       4.48033050       3.14845522
        38    4       -1.00177386      10.69783050       4.63447628
        39    4        2.61286864       7.95466950       2.04016578
        40    4        4.21848886       1.73716950       0.55414472
