################################################################################
# Symmetry function scaling data.
################################################################################
# Col  Name     Description
################################################################################
# 1    e_index  Element index.
# 2    sf_index Symmetry function index.
# 3    sf_min   Symmetry function minimum.
# 4    sf_max   Symmetry function maximum.
# 5    sf_mean  Symmetry function mean.
# 6    sf_sigma Symmetry function sigma.
#########################################################################################################################
#        1          2                        3                        4                        5                        6
#  e_index   sf_index                   sf_min                   sf_max                  sf_mean                 sf_sigma
#########################################################################################################################
         1          1   2.0137686057417191E-02   4.3688047956416121E-01   1.5255972732346804E-01   4.4707136168098092E-02
         1          2   1.6537306353656757E-04   2.3167996562746307E-01   6.9133603961686954E-02   3.3682804260898688E-02
         1          3   5.7105903096049317E-03   3.6734901946307369E-01   1.5822356165209306E-01   4.7345040084922442E-02
         1          4   4.7389851447432241E-02   1.2207726129513401E+00   4.4309916227964929E-01   1.1984568582435771E-01
         1          5   5.9335597216067592E-15   1.2319639012262022E-01   2.4003668480605214E-02   2.5661814777960642E-02
         1          6   2.9796868254413865E-11   1.2310924712658038E-01   6.7273916887222607E-03   1.8449317252187281E-02
         1          7   1.1729502024375045E-02   2.8542079025323885E-01   1.2389876104043174E-01   3.4475643371095280E-02
         1          8   2.3792856641060736E-03   1.6323721336331604E-01   5.3553883229750805E-02   2.1917376839289036E-02
         1          9   3.8665534962649606E-06   8.9804555571901534E-02   2.0602221830633659E-02   1.3558686900406092E-02
         1         10   4.4358781156045440E-03   1.4181214537240761E-01   6.4165365069509789E-02   2.0200392722524652E-02
         1         11   1.6354995180044944E-03   4.1570927935505536E-01   1.0993857902507838E-01   8.3991378112419871E-02
         1         12   2.6638491143963956E-02   4.0767186153186330E-01   1.7860271707981765E-01   4.2529839607343620E-02
         1         13   9.4129057049761843E-03   2.1843346955166332E-01   8.7827775985179657E-02   2.6640800571908190E-02
         1         14   5.4009690084905637E-02   3.8062972189399447E-01   1.7482543071622889E-01   4.0362817561053504E-02
         1         15   2.0001108944577969E-01   1.8451771143618634E+00   7.7998678247634801E-01   1.9290488918172094E-01
         1         16   1.7781306597103631E-02   8.1561399478597063E-01   3.4253148299962410E-01   9.5264943463649582E-02
         1         17   8.0239839451109012E-03   4.0822328272035280E-01   1.4997165105514026E-01   5.4276820471937617E-02
         1         18   2.1545621242487074E-06   1.2177888392798594E-01   5.4273743019036215E-03   5.6574370914969120E-03
         1         19   1.6238373390003136E-01   2.1306303665456374E+00   9.0584304787365433E-01   2.4605102999585979E-01
         1         20   1.9271857243461650E-02   1.1058386412116001E+00   4.1129513555290881E-01   1.3880144675001566E-01
         1         21   1.5681772479262032E-01   8.8874673520771386E-01   4.1631077010741585E-01   8.3845337314783649E-02
         1         22   7.9487636761343142E-02   4.4884334128075176E-01   2.1878864909291285E-01   4.0748128339922460E-02
         1         23   8.4421212567077153E-01   3.8866034914994922E+00   2.0499309083669570E+00   3.8778957234452155E-01
         1         24   2.9366444666334812E-01   1.6673422229257746E+00   7.9250350020125548E-01   1.6573514997534688E-01
         1         25   1.2607292300199535E-01   8.3418454548777710E-01   4.2110660708510594E-01   9.1948030691374805E-02
         1         26   2.3953925901103673E-01   1.6124130800364800E+00   7.5846397798224308E-01   1.7554333829351021E-01
         1         27   1.0258898783794791E-07   1.4484063135995817E-01   2.7882078769320015E-02   3.4718248785820673E-02
         1         28   1.2322963035646538E-01   1.8381739238511319E+00   9.3273535464134494E-01   1.9631195330874632E-01
         1         29   1.1223453799032239E-05   2.1544016785971457E-02   2.3422710276306993E-03   1.8782011573515577E-03
         1         30   1.6133744592912165E-14   1.1215266377783778E-02   3.4318524929569387E-04   4.9484052680764728E-04
         1         31   2.2744360656359253E-06   1.4850986200432346E-02   7.8238185927403871E-04   9.0454073573483060E-04
         1         32   6.2853401421129854E-07   2.2181837828080250E-02   6.3942891993558858E-04   1.1093015633559104E-03
         1         33   2.8339458774465656E-10   6.3645300174036863E-03   2.2582410533886861E-04   2.5111626720270962E-04
         1         34   6.6484115935373383E-08   1.4881144053859426E-02   2.6095041853471196E-04   4.3238792061481648E-04
         1         35   5.5040726369549154E-08   1.3965186537132942E-02   2.4038170109142115E-04   5.0010039523433838E-04
         1         36   2.2587327940521867E-08   1.5818268945603085E-02   2.6311532994739771E-04   5.8066100223294951E-04
         1         37   1.1129611160629715E-11   5.9661680555222136E-03   6.2281970936924443E-05   1.5275972628590539E-04
         1         38   4.9072771098976178E-10   1.1983592589239053E-02   1.2125495443721218E-04   2.8697849977288005E-04
         1         39   1.0122749580746065E-06   6.3440563267489411E-02   2.7168730884025378E-03   4.4457745030923833E-03
         1         40   2.1106592553605175E-12   1.6351938829179218E-02   1.2230060103831206E-03   1.3136631575340933E-03
         1         41   3.5938613050424361E-06   1.8311443171805601E-02   1.9388598889403261E-03   1.7318648707772611E-03
         1         42   4.2144949968892247E-09   3.0496343852484944E-03   1.0324177856037151E-04   1.0478302548857774E-04
         1         43   1.0189945061646582E-09   7.1240776057946032E-03   5.7395318125882521E-04   3.7437621617696559E-04
         1         44   9.4453160912313079E-08   1.0861670873729638E-02   2.9898863544835580E-04   4.3876828759269632E-04
         1         45   1.6137322546411974E-09   3.0736166302636585E-03   9.5524178815471980E-05   1.1351254207952053E-04
         1         46   1.0067506870966815E-12   8.3802859539724647E-03   1.3345593257518324E-04   3.4153387014928079E-04
         1         47   0.0000000000000000E+00   1.8639736041855576E-03   6.9148142746385461E-06   4.3520314885162178E-05
         1         48   9.3953643758395569E-06   2.4091173244389752E-02   4.0283610380701896E-03   3.2181153109654471E-03
         1         49   3.5899589293116381E-07   5.4220603453557980E-03   2.1756140067966898E-04   2.3584640257456025E-04
         1         50   2.0945102247775283E-07   6.6485410571956735E-03   4.5015796564140204E-04   4.9660243574164986E-04
         1         51   0.0000000000000000E+00   8.7919181090863417E-04   3.8673496725011225E-06   2.1546047767279430E-05
         1         52   5.5258780637988346E-11   1.4169255344401691E-03   3.5550898686531330E-05   5.6414339288324438E-05
         1         53   5.0180465556297908E-19   3.9025357770110726E-03   2.6408404612501261E-05   6.7140432106261821E-05
         1         54   6.5532844024291163E-12   5.2666335066703651E-03   1.5943368583366623E-04   2.4337858184265285E-04
         1         55   6.4939741366400241E-09   6.8571880228942041E-03   8.6375223153652172E-05   2.5489038509906252E-04
         1         56   3.8752475717661571E-12   3.1685302545974279E-03   8.5832243221734569E-05   1.3805420097030179E-04
         1         57   7.6825199203831684E-10   9.5619932652477317E-04   1.2318766841411486E-05   2.8204499171102774E-05
         1         58   6.9754982635466692E-23   9.9237766277156746E-04   2.9240875595836578E-06   2.4235277598027353E-05
         1         59   1.9574492333679761E-14   1.6402904486914607E-03   5.9307520967583070E-06   2.5313557698210919E-05
         1         60   1.4095852787092327E-11   3.4476846016509004E-03   1.2796346096011221E-05   5.5907564702667208E-05
         1         61   4.3466767358892210E-10   4.6370495784141767E-03   9.2214920814707882E-04   4.8021293702856069E-04
         1         62   4.4043313773478198E-08   5.9679245603413726E-03   3.0018334080721197E-04   4.7979250043648570E-04
         1         63   0.0000000000000000E+00   2.1060529359953240E-03   7.1172563198120595E-07   1.9735996060992635E-05
         1         64   2.0946478751535802E-19   1.9917693804591143E-03   7.8595593351309315E-06   2.2876484867068515E-05
         1         65   4.4022512983796446E-11   4.2911083549899993E-03   3.6617113897438259E-05   1.4668015425372806E-04
         1         66   1.0092206288259463E-11   1.2457512025557441E-03   9.4504263031665949E-06   3.4391343380064722E-05
         1         67   4.4372124790481590E-13   2.3251877627147566E-03   2.5451443070639195E-04   1.7807371835948027E-04
         1         68   1.3316711167096128E-10   1.5210796164771732E-03   1.6390167289539549E-05   3.6021598404653005E-05
         1         69   1.6689466170028514E-11   2.0922774694549563E-03   1.1142922910295033E-05   5.2975263296764152E-05
         1         70   2.9545189658307220E-21   3.7756828901936134E-04   1.9199063037722130E-06   6.2181108774410020E-06
         1         71   5.7689105236206658E-25   6.8933962118555988E-04   2.7086374828189911E-06   1.7204803919618836E-05
         1         72   3.0195318769163134E-12   1.5178531935467076E-04   9.1239206733582692E-07   3.0115664972960922E-06
         1         73   7.4037367944986214E-13   2.0401848327644347E-03   3.8374365501900459E-06   2.7355703591216171E-05
         1         74   5.3613227335373066E-18   2.9394960144494935E-04   4.4157769776883680E-07   3.4290810335957729E-06
         1         75   4.2165418076755772E-14   7.1726611754589049E-04   9.3790354052323616E-07   8.8253070356418293E-06
         1         76   0.0000000000000000E+00   7.8065159036254074E-05   8.9337214556424516E-08   1.1492847184943907E-06
         1         77   1.0002838715411917E-16   6.1402623657578765E-04   5.5300316013183931E-06   1.3369390089975206E-05
         1         78   4.4024815453844413E-09   1.8160527420594814E-03   3.0756537424377402E-05   4.4099329207298004E-05
         1         79   2.4826441338327957E-11   7.2170004854406012E-03   1.3934909432389053E-04   5.3500014907217159E-04
         1         80   1.0713241412120206E-10   1.5865481427582713E-03   3.8296137301067136E-05   1.0274914498729737E-04
         1         81   9.5078894748461556E-15   3.9338052934127373E-05   2.2903984782168378E-07   7.8055628991576494E-07
         1         82   4.0354843340296222E-14   1.8733456387198043E-04   5.1509086950497560E-07   1.7067871454948093E-06
         1         83   4.9807048753299610E-14   3.7606944070867651E-04   6.5531080657051608E-06   1.4306327190264316E-05
         1         84   5.7705677807636593E-19   6.7956644101333104E-04   2.3382273898935624E-05   3.6745071446354409E-05
         1         85   1.2238467875439191E-33   7.8656300438778619E-05   1.5915871615763300E-08   4.0786609500995913E-07
         1         86   1.8309388159360931E-21   3.4504840953571991E-05   2.2916124373513908E-07   5.8214806396476954E-07
         1         87   5.2285917497862794E-18   5.3029625071759479E-05   7.3053278564989612E-08   7.0817234979140281E-07
         1         88   2.3016599227708221E-13   1.0940694022453553E-03   4.5158330578465132E-05   8.0761264516493068E-05
         1         89   2.8002144708292169E-16   2.7486526115899222E-03   2.0319055719323354E-05   1.0505020473791185E-04
         1         90   0.0000000000000000E+00   5.1436717118196138E-05   3.6282836534084210E-09   3.2411057446237440E-07
         1         91   2.2461703848730463E-21   3.2610701060795006E-06   4.5745283030991693E-09   4.2374295504095450E-08
         1         92   3.4292752736544940E-16   5.2205214866902349E-06   1.4029100134615687E-08   7.4670393870711187E-08
         1         93   1.5173318067814876E-16   1.2544524397501011E-04   8.5043400195797897E-08   1.0044086853937364E-06
         1         94   1.4969736710758921E-22   1.0300002399850947E-04   1.5793023402202089E-07   1.2526563717212891E-06
         1         95   5.3230542287680069E-18   2.0467726653732030E-04   1.3108444799368023E-07   1.9784933873135119E-06
         1         96   3.9128557985846043E-24   1.1888741226016902E-05   9.4164312350798628E-09   1.1874215946184716E-07
         1         97   9.1252253986425582E-20   3.4943346128291767E-05   1.3948992722203494E-08   3.3511667152688974E-07
         1         98   0.0000000000000000E+00   1.4254076045875798E-06   5.5387372177730642E-10   1.4436153123002881E-08
         1         99   1.6709440200224221E-23   4.3958266170472803E-05   5.1546377693724075E-08   2.8914574316306928E-07
         1        100   6.6717377250603111E-36   3.3659734482031399E-05   3.7473902019516497E-08   4.1751799829019501E-07
         1        101   1.4529341788085566E-13   2.5855795564255340E-04   6.6529816135939492E-07   2.1642912610860799E-06
         1        102   7.0091618402707688E-18   1.7467067005692873E-03   1.3537321868444240E-04   1.8384416692419290E-04
         1        103   3.0136682260714224E-24   9.2727840466673574E-05   1.1141589685646934E-06   2.5969309255489455E-06
         1        104   6.9074554418728468E-16   1.9182976615505327E-04   1.3561628945594033E-06   6.2991544694078460E-06
         1        105   5.1086994650902477E-34   3.9914751577192027E-05   3.6042853559219290E-09   2.1969706425729047E-07
         1        106   1.6972637027727114E-03   1.6388223232295182E-01   2.1560746973023823E-02   1.1881349966597565E-02
         1        107   1.8413311156381237E-04   8.8776701153599008E-02   8.1828408780960371E-03   8.1121287332865926E-03
         1        108   8.3866256772965571E-04   1.8344272974115652E-01   2.1164434759194745E-02   1.2439290801197754E-02
         1        109   3.6043612329870729E-04   1.0288691281243993E-01   1.4548394595714872E-02   1.1180900099980235E-02
         1        110   1.4878704835376627E-04   4.8301206079027326E-02   6.8284021189698998E-03   4.1954421229392202E-03
         1        111   6.2340914029744478E-04   1.1237910431884741E-01   1.0584430285587098E-02   6.6786932980508560E-03
         1        112   7.2446708590783196E-07   2.3957634363478628E-02   1.3573101309833245E-03   1.8487897162575357E-03
         1        113   3.2719186650493075E-04   5.4719223760438550E-02   1.1337049169133737E-02   7.9802660182943450E-03
         1        114   1.5289979146636127E-02   5.4761168934147142E-01   1.0227205429641462E-01   4.5389743319604353E-02
         1        115   2.5994370206942397E-02   4.0148046043043673E-01   1.2191935701270232E-01   4.0593880832583820E-02
         1        116   8.7460711483195103E-04   1.6452723489888890E-01   1.9699499387478284E-02   9.4358149657967905E-03
         1        117   3.5690523160140223E-03   1.2890520623721877E-01   3.5533131036738302E-02   1.0653079447916769E-02
         1        118   8.3182487181487192E-04   8.1578829667322827E-02   1.2584691644859538E-02   7.0383719006857481E-03
         1        119   3.6256058759243635E-04   1.1982976373639367E-01   1.2052584095397417E-02   7.5790641563328442E-03
         1        120   9.2300015018912263E-04   9.9729190920195651E-02   1.3175469022181113E-02   8.3772401514725803E-03
         1        121   4.4757770411381408E-04   6.2499874098959372E-02   9.3349159978261508E-03   4.5648456209808983E-03
         1        122   3.5609293608541786E-04   1.3263880820117338E-01   1.0637373923542342E-02   8.5205341840591028E-03
         1        123   2.4465605638226814E-08   1.1171064770939900E-02   4.4822593125693144E-04   8.0773386956232193E-04
         1        124   1.1580671565560479E-03   1.5220541215917560E-01   4.7903846115392966E-02   2.3644781411835958E-02
         1        125   3.2987423903393244E-08   2.0471414168562078E-02   4.0527400117353426E-04   6.6980256973969417E-04
         1        126   3.6158737303601793E-06   2.0307577671841031E-02   7.4903781478178016E-04   1.1010501483482878E-03
         1        127   5.6685794762114456E-06   2.0066437939247769E-02   1.5800503323994738E-03   1.2586475835750877E-03
         1        128   9.9492837788184296E-04   6.7176240230857068E-02   1.4358686747235342E-02   6.9270733022388448E-03
         1        129   4.3707608769188712E-05   2.4849470576676268E-02   2.2341064071934014E-03   1.7430563267725916E-03
         2          1   7.9703438570476196E-02   7.9868982668400434E-01   3.8139931830866980E-01   9.2152948625560324E-02
         2          2   2.9444390655821769E-03   3.0865944965398101E-01   7.3790791035417191E-02   2.9114454966841206E-02
         2          3   9.7461724746195506E-05   5.0117742337481497E-01   1.1764920275149258E-01   3.6700166025555640E-02
         2          4   7.5461876144003768E-13   3.4634292993142343E-02   4.0742240076463735E-03   2.9595668611906057E-03
         2          5   2.4716109377440447E-14   4.1978341619927632E-02   3.8701360689234131E-03   5.0257451902036166E-03
         2          6   1.9432899649541220E-10   7.7925175537144897E-02   1.7693517635814986E-02   1.8451275889449260E-02
         2          7   3.3678104153978054E-04   1.2176368023543369E-01   2.5204094868886504E-02   1.9035080950431306E-02
         2          8   9.9216084669139355E-05   8.9650108163817674E-02   2.2041117655981279E-02   1.6122660350613743E-02
         2          9   9.8126808135623147E-05   1.5604973137162381E-01   5.2314130709674819E-02   3.0792219868243566E-02
         2         10   3.2594451135139334E-02   3.7602289666577204E-01   1.8775073255138516E-01   5.1071464021231826E-02
         2         11   5.0489699262707195E-02   4.0372581662282758E-01   1.7207789473014953E-01   4.0245646389382619E-02
         2         12   2.5211031402533957E-01   1.8128090856762702E+00   8.5632870749906065E-01   1.9174936978947948E-01
         2         13   1.2716488926112338E-02   3.9983791756732173E-01   1.9250781437898570E-01   5.7369532013791712E-02
         2         14   1.0497684259907093E-01   2.0526456981892234E+00   1.0282378388822710E+00   3.1021066644646539E-01
         2         15   6.9498552063355975E-03   9.3941520924639677E-01   3.0806466262029125E-01   1.3040465175368851E-01
         2         16   8.1693421292887620E-04   5.5995678642980762E-01   2.0899260247612514E-01   1.0633064020386426E-01
         2         17   1.5329745571588047E-01   9.2944437307220207E-01   4.5589369948787617E-01   1.0202988626606066E-01
         2         18   1.9304326438844666E-01   8.3265043063416200E-01   4.3462975480331512E-01   7.9098970775196550E-02
         2         19   7.4573102762672788E-02   4.3264921263527567E-01   2.0179215718716209E-01   4.4111433632427595E-02
         2         20   2.5194671296031479E-01   1.5353673784360162E+00   8.5602811929358513E-01   1.8570415046030028E-01
         2         21   2.8525905661834244E-01   1.4880987552839595E+00   7.7742140924449343E-01   1.8225930787544764E-01
         2         22   9.2069298500893806E-02   9.8089374847794941E-01   5.2097297104355489E-01   1.1946535169993949E-01
         2         23   1.5193306328416319E-02   1.1173116213968379E+00   4.8624809678410952E-01   1.7236581302449430E-01
         2         24   7.8161450519295919E-02   2.1390065458853011E+00   9.0381465153040130E-01   2.7096392586157930E-01
         2         25   4.4119740818266824E-09   4.4198847922381239E-03   2.3605936791495225E-04   2.0567081320538855E-04
         2         26   0.0000000000000000E+00   1.4249957577961873E-02   8.5406307762562168E-05   4.8442084616511378E-04
         2         27   2.9592399071109216E-08   1.1080089067533357E-02   1.1978788466178757E-03   9.2579449521923527E-04
         2         28   1.5740868444451428E-09   5.0679545212837639E-03   3.1555159574904571E-04   2.5316760648976910E-04
         2         29   1.6463722996794700E-08   6.1782705091243985E-03   1.3324073788726428E-03   1.5092480109697808E-03
         2         30   7.9044651115358106E-06   4.5927115940645857E-02   5.5128622487068298E-03   4.2775269106361275E-03
         2         31   6.8771514172078129E-10   4.4187506489900327E-03   2.7737422023038340E-04   2.3124673151083466E-04
         2         32   4.5502285988396073E-09   1.6807848202986819E-02   1.7315388424209910E-03   2.0049249545320553E-03
         2         33   1.2604985473961320E-10   8.7927291769629816E-03   9.3949269435109550E-04   1.0623524591343581E-03
         2         34   2.4861028116228134E-11   8.7221334516446036E-03   1.2190101333725833E-03   1.4153756019479947E-03
         2         35   1.3301543060677011E-11   5.0458944117710907E-03   7.1929185494174321E-04   8.5483321936135443E-04
         2         36   0.0000000000000000E+00   1.6550094849446674E-03   5.1340188046382015E-06   6.2883928620943244E-05
         2         37   5.8158991550479345E-06   2.6791198482722184E-02   3.0919214705524361E-03   2.3741431282658047E-03
         2         38   4.0895351155971235E-06   2.5881137495641336E-02   3.1495569136319982E-03   3.1436180908070641E-03
         2         39   3.5476264337506537E-09   3.7881849796058934E-03   7.5687840440190703E-04   8.7179911660841458E-04
         2         40   2.7199866047421909E-08   4.8609004557848166E-03   1.8751834392243636E-04   2.4081797387810703E-04
         2         41   8.3095555877136068E-11   7.8370739436413122E-04   1.4621143095861824E-05   2.3837698219904107E-05
         2         42   8.2312111753174362E-07   1.6009806828804641E-02   2.5081505606303501E-03   2.5241432504369589E-03
         2         43   0.0000000000000000E+00   5.2563455789489738E-03   2.4725444159193970E-05   1.7050486907230466E-04
         2         44   1.6510848054622074E-08   1.7554256781778632E-02   1.9894616896114752E-03   2.2664335441422334E-03
         2         45   1.6156476262071011E-09   2.2125729542899460E-03   3.6273257432048938E-04   3.7966996759588423E-04
         2         46   0.0000000000000000E+00   1.0140089391767685E-03   2.2319246279847714E-06   2.4868844015692548E-05
         2         47   1.2373243907286952E-09   2.3760217170401849E-03   4.3148076904302548E-05   9.3938456731485281E-05
         2         48   2.3126158478081375E-13   1.2506165229851879E-03   1.3427346911406188E-04   1.6733508535891726E-04
         2         49   4.8588241822991971E-13   2.1607682619522914E-03   1.9594404655488200E-04   2.5598117773859491E-04
         2         50   6.1793603767143969E-08   7.9382058201456010E-03   4.4388486719999055E-04   4.9584712489684254E-04
         2         51   7.4072090165388768E-09   1.0408572109914877E-02   1.8831507319297029E-03   1.9412749425407839E-03
         2         52   3.6723998757376291E-13   1.4703122679210441E-04   4.9862554135945984E-06   7.1221733550986804E-06
         2         53   2.5224560252544649E-12   3.4887730012856901E-04   3.9609248896793902E-05   4.4832935986289824E-05
         2         54   0.0000000000000000E+00   1.5213982564172540E-04   1.3421835612622176E-07   2.1798906150597163E-06
         2         55   0.0000000000000000E+00   6.9249066239509985E-04   9.0991162998431052E-07   1.2247250794194285E-05
         2         56   1.6465557511320363E-13   1.9041757061449046E-03   1.3182703240978096E-04   1.7479286107605061E-04
         2         57   1.2774882196328575E-15   5.3114609058362082E-04   3.2018439066900775E-05   4.3129713693059261E-05
         2         58   2.3240717182556380E-18   6.6163062580286598E-05   3.0111035467428337E-06   4.9252285793830278E-06
         2         59   1.2482734798438484E-15   4.2049357836613005E-05   1.0417300842449824E-07   8.0320611557806033E-07
         2         60   1.6303643749468879E-10   2.2943416944527749E-03   5.4186320733365315E-05   9.6901283252924872E-05
         2         61   2.8810635786495028E-10   1.8609415780543217E-03   1.4349240312090753E-04   1.8175743785233311E-04
         2         62   7.0314758398964840E-10   2.5941733149025307E-03   9.0931872445423591E-05   2.0071058015050977E-04
         2         63   5.3354038013498901E-15   1.7012256538746480E-04   8.2878014048664062E-07   3.7446368864687687E-06
         2         64   0.0000000000000000E+00   2.2686692363674306E-05   8.8196799018060970E-09   2.6159250135950404E-07
         2         65   6.1027976015543292E-18   9.6744215447234350E-06   5.1195213772061746E-07   7.1509400851331003E-07
         2         66   5.0591558987863984E-21   2.0623521684499628E-05   1.5487999158288454E-06   2.1541476540119094E-06
         2         67   1.8583113659323202E-15   9.9923082858191623E-04   2.8425984365656464E-05   5.3372130573384587E-05
         2         68   4.2206365777427066E-15   1.9340045305394894E-04   7.0097014046809768E-06   9.4717725178048488E-06
         2         69   3.2846775905378896E-20   8.3808050372218513E-06   4.4637218479296294E-07   6.6540981318416003E-07
         2         70   1.1506457837106734E-17   6.3649224050995530E-05   2.0905830078570023E-06   3.4950828417690260E-06
         2         71   3.4101019951749458E-20   9.3994376634375605E-05   4.5863974929485207E-06   6.8671033650499657E-06
         2         72   3.2651797854799790E-19   7.5669691033091433E-06   3.4798104013171917E-07   5.3896794573658919E-07
         2         73   9.8738659876882414E-22   1.7229627520653022E-05   1.2095647677277557E-06   1.7054841687870842E-06
         2         74   2.6333536065929574E-17   2.8896446018234514E-04   1.6256646489388974E-05   2.2871161262790995E-05
         2         75   1.1128763742073888E-20   2.4699977230621326E-05   8.5837045132173792E-07   1.4567696626013678E-06
         2         76   1.6842138461600549E-22   4.5698532175583978E-05   2.0073355074485708E-06   3.2303800532145674E-06
         2         77   3.1090190658179286E-17   5.5359854458463175E-05   8.5965827356472332E-08   8.5885880833900103E-07
         2         78   4.1525013797198097E-24   1.7291564882755384E-06   2.8793528531363856E-08   6.9586518212111315E-08
         2         79   0.0000000000000000E+00   1.4512470602485178E-06   1.1619003547193725E-09   2.3303002003570754E-08
         2         80   1.0373966316127808E-22   1.6914987981088878E-05   7.5167568666687681E-07   1.1429034360114249E-06
         2         81   3.3586873866110928E-15   1.4801225051027902E-04   4.1406208609562651E-06   7.1394334674014506E-06
         2         82   1.7574215679381365E-14   3.7656975822451116E-04   3.9570985370712777E-06   1.3896211885043267E-05
         2         83   0.0000000000000000E+00   2.7323201874712241E-05   1.2749673044475308E-08   3.4447572012605477E-07
         2         84   5.9729044746903766E-22   8.2863211035308785E-06   1.0726775104403893E-07   2.5972253231293746E-07
         2         85   3.9968643200351498E-17   1.0152387219497305E-05   5.1860827178651195E-07   7.7850775330251793E-07
         2         86   0.0000000000000000E+00   3.9944262824544160E-07   1.1184141454045876E-10   3.9440015383674319E-09
         2         87   3.1337480092328679E-22   2.9542750721001695E-07   3.8994326704047411E-10   3.5530994726698172E-09
         2         88   1.0690596943999480E-04   8.7492134282600609E-02   9.4827755713513366E-03   6.5874827701066507E-03
         2         89   9.6269878060812573E-03   3.8115297708228990E-01   1.0881059020512647E-01   4.2331877989990149E-02
         2         90   2.8288420291988347E-05   1.2598786580858676E-01   6.9962577781559794E-03   6.8187988120790299E-03
         2         91   3.5826770745597783E-03   1.1516912192461619E-01   3.5026833348816108E-02   1.2173281037746671E-02
         2         92   3.0304898591222216E-06   4.5266329107281567E-02   1.2277028504577296E-03   1.7298052256499146E-03
         2         93   1.5265006894453233E-05   5.0357509393634182E-02   5.2408438992104303E-03   4.5075999663545686E-03
         2         94   3.8990258595189374E-05   5.0195863765304681E-02   1.3068265603926729E-02   1.1164476126620354E-02
         2         95   1.5356493917971489E-02   4.8673896340699307E-01   1.2906874388492542E-01   5.3320254453927525E-02
         2         96   1.5424533636953944E-03   8.5496466451910461E-02   1.6826700713965581E-02   7.1211875973762970E-03
         2         97   3.4504910434138367E-04   6.5956571843656012E-02   1.2403480619527681E-02   6.8864269743146187E-03
         2         98   2.2368684463983382E-06   5.0740066034877684E-02   1.3734295687988769E-03   1.9877979601792086E-03
         2         99   5.4807178131930094E-04   9.3629672709521827E-02   1.2328672811606460E-02   6.7664006064681514E-03
         2        100   2.2487199610416765E-04   1.4097711901232018E-01   2.7646938924456153E-02   2.0849780199429738E-02
         2        101   1.7080853712751844E-05   4.0933167826395056E-02   6.8954291612205341E-03   6.7431787048429174E-03
         2        102   3.0516408064634598E-03   2.5668331871425110E-01   5.4725139154768176E-02   2.5365070697975885E-02
         2        103   1.4020591118543480E-03   9.0583626506826317E-02   2.4598227546089368E-02   1.3070498520280556E-02
         2        104   1.1706044616377229E-07   2.7785398070810759E-02   4.0966171832319879E-04   9.5348934070554371E-04
         2        105   4.1257243416833051E-05   3.3627541193401979E-02   7.7179647538106952E-03   6.6790145004694016E-03
         2        106   4.3581832344229159E-06   4.7003143754721963E-02   7.8241299994090581E-03   7.7763069165241302E-03
         2        107   4.0655287663178411E-04   4.5123650442700676E-02   8.4665338504550502E-03   3.9543413124103781E-03
         2        108   3.5468765166197181E-08   1.7328811441508996E-02   1.8801644320593731E-04   5.6221263250148313E-04